 Entering Gaussian System, Link 0=g16
 Initial command:
 /share/Apps/gaussian/g16/l1.exe "/share/ceph/scratch/zjk220/7661224/Gau-50344.inp" -scrdir="/share/ceph/scratch/zjk220/7661224/"
 Entering Link 1 = /share/Apps/gaussian/g16/l1.exe PID=     50346.
  
 Copyright (c) 1988-2019, Gaussian, Inc.  All Rights Reserved.
  
 This is part of the Gaussian(R) 16 program.  It is based on
 the Gaussian(R) 09 system (copyright 2009, Gaussian, Inc.),
 the Gaussian(R) 03 system (copyright 2003, Gaussian, Inc.),
 the Gaussian(R) 98 system (copyright 1998, Gaussian, Inc.),
 the Gaussian(R) 94 system (copyright 1995, Gaussian, Inc.),
 the Gaussian 92(TM) system (copyright 1992, Gaussian, Inc.),
 the Gaussian 90(TM) system (copyright 1990, Gaussian, Inc.),
 the Gaussian 88(TM) system (copyright 1988, Gaussian, Inc.),
 the Gaussian 86(TM) system (copyright 1986, Carnegie Mellon
 University), and the Gaussian 82(TM) system (copyright 1983,
 Carnegie Mellon University). Gaussian is a federally registered
 trademark of Gaussian, Inc.
  
 This software contains proprietary and confidential information,
 including trade secrets, belonging to Gaussian, Inc.
  
 This software is provided under written license and may be
 used, copied, transmitted, or stored only in accord with that
 written license.
  
 The following legend is applicable only to US Government
 contracts under FAR:
  
                    RESTRICTED RIGHTS LEGEND
  
 Use, reproduction and disclosure by the US Government is
 subject to restrictions as set forth in subparagraphs (a)
 and (c) of the Commercial Computer Software - Restricted
 Rights clause in FAR 52.227-19.
  
 Gaussian, Inc.
 340 Quinnipiac St., Bldg. 40, Wallingford CT 06492
  
  
 ---------------------------------------------------------------
 Warning -- This program may not be used in any manner that
 competes with the business of Gaussian, Inc. or will provide
 assistance to any competitor of Gaussian, Inc.  The licensee
 of this program is prohibited from giving any competitor of
 Gaussian, Inc. access to this program.  By using this program,
 the user acknowledges that Gaussian, Inc. is engaged in the
 business of creating and licensing software in the field of
 computational chemistry and represents and warrants to the
 licensee that it is not a competitor of Gaussian, Inc. and that
 it will not use this program in any manner prohibited above.
 ---------------------------------------------------------------
  

 Cite this work as:
 Gaussian 16, Revision C.01,
 M. J. Frisch, G. W. Trucks, H. B. Schlegel, G. E. Scuseria, 
 M. A. Robb, J. R. Cheeseman, G. Scalmani, V. Barone, 
 G. A. Petersson, H. Nakatsuji, X. Li, M. Caricato, A. V. Marenich, 
 J. Bloino, B. G. Janesko, R. Gomperts, B. Mennucci, H. P. Hratchian, 
 J. V. Ortiz, A. F. Izmaylov, J. L. Sonnenberg, D. Williams-Young, 
 F. Ding, F. Lipparini, F. Egidi, J. Goings, B. Peng, A. Petrone, 
 T. Henderson, D. Ranasinghe, V. G. Zakrzewski, J. Gao, N. Rega, 
 G. Zheng, W. Liang, M. Hada, M. Ehara, K. Toyota, R. Fukuda, 
 J. Hasegawa, M. Ishida, T. Nakajima, Y. Honda, O. Kitao, H. Nakai, 
 T. Vreven, K. Throssell, J. A. Montgomery, Jr., J. E. Peralta, 
 F. Ogliaro, M. J. Bearpark, J. J. Heyd, E. N. Brothers, K. N. Kudin, 
 V. N. Staroverov, T. A. Keith, R. Kobayashi, J. Normand, 
 K. Raghavachari, A. P. Rendell, J. C. Burant, S. S. Iyengar, 
 J. Tomasi, M. Cossi, J. M. Millam, M. Klene, C. Adamo, R. Cammi, 
 J. W. Ochterski, R. L. Martin, K. Morokuma, O. Farkas, 
 J. B. Foresman, and D. J. Fox, Gaussian, Inc., Wallingford CT, 2019.
 
 ******************************************
 Gaussian 16:  ES64L-G16RevC.01  3-Jul-2019
                19-Apr-2022 
 ******************************************
 %chk=trans.chk
 %nprocshared=52
 Will use up to   52 processors via shared memory.
 %mem=280GB
 ------------------------------------------------------------
 # opt freq CAM-B3LYP/6-311g(d,p) scrf=(solvent=acetonitrile)
 ------------------------------------------------------------
 1/18=20,19=15,26=3,38=1/1,3;
 2/9=110,12=2,17=6,18=5,40=1/2;
 3/5=4,6=6,7=101,11=2,25=1,30=1,70=2201,71=1,72=2,74=-40/1,2,3;
 4//1;
 5/5=2,38=5,53=2/2;
 6/7=2,8=2,9=2,10=2,28=1/1;
 7//1,2,3,16;
 1/18=20,19=15,26=3/3(2);
 2/9=110/2;
 99//99;
 2/9=110/2;
 3/5=4,6=6,7=101,11=2,25=1,30=1,70=2205,71=1,72=2,74=-40/1,2,3;
 4/5=5,16=3,69=1/1;
 5/5=2,38=5,53=2/2;
 7//1,2,3,16;
 1/18=20,19=15,26=3/3(-5);
 2/9=110/2;
 6/7=2,8=2,9=2,10=2,19=2,28=1/1;
 99/9=1/99;
 ---------
 trans-CAM
 ---------
 Symbolic Z-matrix:
 Charge =  0 Multiplicity = 1
 N                     0.94419  -0.53177   0. 
 N                     0.50064  -1.70105   0. 
 N                    -2.61327   3.78913   0. 
 C                    -4.06116   3.67956   0.03 
 C                    -2.17961   5.17474  -0.03 
 C                     0.        0.49176   0. 
 C                    -1.38953   0.31144  -0.03 
 C                     0.48786   1.79923   0.03 
 C                    -2.24284   1.38468  -0.04 
 C                    -0.35558   2.8859    0.04 
 C                    -1.76283   2.72375   0. 
 C                     1.50446  -2.70217   0. 
 C                     2.87752  -2.46329   0. 
 C                     1.06892  -4.02131   0. 
 C                     3.73306  -3.54948   0. 
 C                     2.012    -5.03716   0. 
 N                     3.32644  -4.82228   0. 
 H                    -4.40198   2.65239   0.46 
 H                    -4.45264   4.51385   0.73524 
 H                    -4.49264   3.83385  -1.03524 
 H                    -1.10184   5.27337  -0.45 
 H                    -2.8979    5.74743  -0.73527 
 H                    -2.23789   5.62743   1.03527 
 H                    -1.78831  -0.69384  -0.06 
 H                     1.56102   1.94856   0.06 
 H                    -3.30181   1.18108  -0.12 
 H                     0.08945   3.86789   0.1 
 H                     3.25679  -1.45195   0. 
 H                     0.00891  -4.23891   0. 
 H                     4.80687  -3.39075   0. 
 H                     1.69228  -6.07438   0. 
 

 GradGradGradGradGradGradGradGradGradGradGradGradGradGradGradGradGradGrad
 Berny optimization.
 Initialization pass.
                           ----------------------------
                           !    Initial Parameters    !
                           ! (Angstroms and Degrees)  !
 --------------------------                            --------------------------
 ! Name  Definition              Value          Derivative Info.                !
 --------------------------------------------------------------------------------
 ! R1    R(1,2)                  1.2506         estimate D2E/DX2                !
 ! R2    R(1,6)                  1.3925         estimate D2E/DX2                !
 ! R3    R(2,12)                 1.4177         estimate D2E/DX2                !
 ! R4    R(3,4)                  1.4523         estimate D2E/DX2                !
 ! R5    R(3,5)                  1.4522         estimate D2E/DX2                !
 ! R6    R(3,11)                 1.3632         estimate D2E/DX2                !
 ! R7    R(4,18)                 1.1645         estimate D2E/DX2                !
 ! R8    R(4,19)                 1.1605         estimate D2E/DX2                !
 ! R9    R(4,20)                 1.1596         estimate D2E/DX2                !
 ! R10   R(5,21)                 1.1609         estimate D2E/DX2                !
 ! R11   R(5,22)                 1.1582         estimate D2E/DX2                !
 ! R12   R(5,23)                 1.1589         estimate D2E/DX2                !
 ! R13   R(6,7)                  1.4015         estimate D2E/DX2                !
 ! R14   R(6,8)                  1.3958         estimate D2E/DX2                !
 ! R15   R(7,9)                  1.3712         estimate D2E/DX2                !
 ! R16   R(7,24)                 1.0819         estimate D2E/DX2                !
 ! R17   R(8,10)                 1.3756         estimate D2E/DX2                !
 ! R18   R(8,25)                 1.0839         estimate D2E/DX2                !
 ! R19   R(9,11)                 1.4231         estimate D2E/DX2                !
 ! R20   R(9,26)                 1.0813         estimate D2E/DX2                !
 ! R21   R(10,11)                1.4171         estimate D2E/DX2                !
 ! R22   R(10,27)                1.0798         estimate D2E/DX2                !
 ! R23   R(12,13)                1.3937         estimate D2E/DX2                !
 ! R24   R(12,14)                1.3892         estimate D2E/DX2                !
 ! R25   R(13,15)                1.3827         estimate D2E/DX2                !
 ! R26   R(13,28)                1.0801         estimate D2E/DX2                !
 ! R27   R(14,16)                1.3861         estimate D2E/DX2                !
 ! R28   R(14,29)                1.0821         estimate D2E/DX2                !
 ! R29   R(15,17)                1.3362         estimate D2E/DX2                !
 ! R30   R(15,30)                1.0855         estimate D2E/DX2                !
 ! R31   R(16,17)                1.3319         estimate D2E/DX2                !
 ! R32   R(16,31)                1.0854         estimate D2E/DX2                !
 ! A1    A(2,1,6)              116.5354         estimate D2E/DX2                !
 ! A2    A(1,2,12)             114.1491         estimate D2E/DX2                !
 ! A3    A(4,3,5)              111.7227         estimate D2E/DX2                !
 ! A4    A(4,3,11)             124.2631         estimate D2E/DX2                !
 ! A5    A(5,3,11)             124.0142         estimate D2E/DX2                !
 ! A6    A(3,4,18)             111.4653         estimate D2E/DX2                !
 ! A7    A(3,4,19)             107.1357         estimate D2E/DX2                !
 ! A8    A(3,4,20)             109.9949         estimate D2E/DX2                !
 ! A9    A(18,4,19)            108.1195         estimate D2E/DX2                !
 ! A10   A(18,4,20)            110.3436         estimate D2E/DX2                !
 ! A11   A(19,4,20)            109.6995         estimate D2E/DX2                !
 ! A12   A(3,5,21)             111.4551         estimate D2E/DX2                !
 ! A13   A(3,5,22)             107.4088         estimate D2E/DX2                !
 ! A14   A(3,5,23)             109.7972         estimate D2E/DX2                !
 ! A15   A(21,5,22)            108.2678         estimate D2E/DX2                !
 ! A16   A(21,5,23)            110.2462         estimate D2E/DX2                !
 ! A17   A(22,5,23)            109.5969         estimate D2E/DX2                !
 ! A18   A(1,6,7)              125.2873         estimate D2E/DX2                !
 ! A19   A(1,6,8)              116.84           estimate D2E/DX2                !
 ! A20   A(7,6,8)              117.8726         estimate D2E/DX2                !
 ! A21   A(6,7,9)              121.0949         estimate D2E/DX2                !
 ! A22   A(6,7,24)             119.0514         estimate D2E/DX2                !
 ! A23   A(9,7,24)             119.8478         estimate D2E/DX2                !
 ! A24   A(6,8,10)             121.7215         estimate D2E/DX2                !
 ! A25   A(6,8,25)             118.4039         estimate D2E/DX2                !
 ! A26   A(10,8,25)            119.869          estimate D2E/DX2                !
 ! A27   A(7,9,11)             121.7625         estimate D2E/DX2                !
 ! A28   A(7,9,26)             117.5569         estimate D2E/DX2                !
 ! A29   A(11,9,26)            120.636          estimate D2E/DX2                !
 ! A30   A(8,10,11)            121.2165         estimate D2E/DX2                !
 ! A31   A(8,10,27)            117.7814         estimate D2E/DX2                !
 ! A32   A(11,10,27)           120.9903         estimate D2E/DX2                !
 ! A33   A(3,11,9)             121.6661         estimate D2E/DX2                !
 ! A34   A(3,11,10)            122.012          estimate D2E/DX2                !
 ! A35   A(9,11,10)            116.3219         estimate D2E/DX2                !
 ! A36   A(2,12,13)            125.2078         estimate D2E/DX2                !
 ! A37   A(2,12,14)            116.6511         estimate D2E/DX2                !
 ! A38   A(13,12,14)           118.1411         estimate D2E/DX2                !
 ! A39   A(12,13,15)           118.3561         estimate D2E/DX2                !
 ! A40   A(12,13,28)           120.4262         estimate D2E/DX2                !
 ! A41   A(15,13,28)           121.2178         estimate D2E/DX2                !
 ! A42   A(12,14,16)           118.8561         estimate D2E/DX2                !
 ! A43   A(12,14,29)           119.8723         estimate D2E/DX2                !
 ! A44   A(16,14,29)           121.2716         estimate D2E/DX2                !
 ! A45   A(13,15,17)           124.0572         estimate D2E/DX2                !
 ! A46   A(13,15,30)           119.8169         estimate D2E/DX2                !
 ! A47   A(17,15,30)           116.1259         estimate D2E/DX2                !
 ! A48   A(14,16,17)           123.5878         estimate D2E/DX2                !
 ! A49   A(14,16,31)           119.9957         estimate D2E/DX2                !
 ! A50   A(17,16,31)           116.4165         estimate D2E/DX2                !
 ! A51   A(15,17,16)           117.0017         estimate D2E/DX2                !
 ! D1    D(6,1,2,12)           180.0            estimate D2E/DX2                !
 ! D2    D(2,1,6,7)             -1.5027         estimate D2E/DX2                !
 ! D3    D(2,1,6,8)            178.6198         estimate D2E/DX2                !
 ! D4    D(1,2,12,13)            0.0            estimate D2E/DX2                !
 ! D5    D(1,2,12,14)          180.0            estimate D2E/DX2                !
 ! D6    D(5,3,4,18)          -157.9275         estimate D2E/DX2                !
 ! D7    D(5,3,4,19)           -39.8324         estimate D2E/DX2                !
 ! D8    D(5,3,4,20)            79.348          estimate D2E/DX2                !
 ! D9    D(11,3,4,18)           22.0688         estimate D2E/DX2                !
 ! D10   D(11,3,4,19)          140.164          estimate D2E/DX2                !
 ! D11   D(11,3,4,20)         -100.6556         estimate D2E/DX2                !
 ! D12   D(4,3,5,21)          -158.4264         estimate D2E/DX2                !
 ! D13   D(4,3,5,22)           -39.9895         estimate D2E/DX2                !
 ! D14   D(4,3,5,23)            79.118          estimate D2E/DX2                !
 ! D15   D(11,3,5,21)           21.5772         estimate D2E/DX2                !
 ! D16   D(11,3,5,22)          140.0142         estimate D2E/DX2                !
 ! D17   D(11,3,5,23)         -100.8784         estimate D2E/DX2                !
 ! D18   D(4,3,11,9)             3.3247         estimate D2E/DX2                !
 ! D19   D(4,3,11,10)         -176.6602         estimate D2E/DX2                !
 ! D20   D(5,3,11,9)          -176.6794         estimate D2E/DX2                !
 ! D21   D(5,3,11,10)            3.3357         estimate D2E/DX2                !
 ! D22   D(1,6,7,9)           -179.3836         estimate D2E/DX2                !
 ! D23   D(1,6,7,24)            -0.2683         estimate D2E/DX2                !
 ! D24   D(8,6,7,9)              0.4928         estimate D2E/DX2                !
 ! D25   D(8,6,7,24)           179.6081         estimate D2E/DX2                !
 ! D26   D(1,6,8,10)          -179.6483         estimate D2E/DX2                !
 ! D27   D(1,6,8,25)            -0.514          estimate D2E/DX2                !
 ! D28   D(7,6,8,10)             0.4648         estimate D2E/DX2                !
 ! D29   D(7,6,8,25)           179.5991         estimate D2E/DX2                !
 ! D30   D(6,7,9,11)            -0.9731         estimate D2E/DX2                !
 ! D31   D(6,7,9,26)           176.612          estimate D2E/DX2                !
 ! D32   D(24,7,9,11)          179.9186         estimate D2E/DX2                !
 ! D33   D(24,7,9,26)           -2.4963         estimate D2E/DX2                !
 ! D34   D(6,8,10,11)           -0.9537         estimate D2E/DX2                !
 ! D35   D(6,8,10,27)          177.8092         estimate D2E/DX2                !
 ! D36   D(25,8,10,11)         179.9244         estimate D2E/DX2                !
 ! D37   D(25,8,10,27)          -1.3127         estimate D2E/DX2                !
 ! D38   D(7,9,11,3)          -179.5045         estimate D2E/DX2                !
 ! D39   D(7,9,11,10)            0.4812         estimate D2E/DX2                !
 ! D40   D(26,9,11,3)            2.9838         estimate D2E/DX2                !
 ! D41   D(26,9,11,10)        -177.0305         estimate D2E/DX2                !
 ! D42   D(8,10,11,3)         -179.5436         estimate D2E/DX2                !
 ! D43   D(8,10,11,9)            0.4707         estimate D2E/DX2                !
 ! D44   D(27,10,11,3)           1.7331         estimate D2E/DX2                !
 ! D45   D(27,10,11,9)        -178.2526         estimate D2E/DX2                !
 ! D46   D(2,12,13,15)         180.0            estimate D2E/DX2                !
 ! D47   D(2,12,13,28)           0.0            estimate D2E/DX2                !
 ! D48   D(14,12,13,15)          0.0            estimate D2E/DX2                !
 ! D49   D(14,12,13,28)        180.0            estimate D2E/DX2                !
 ! D50   D(2,12,14,16)         180.0            estimate D2E/DX2                !
 ! D51   D(2,12,14,29)           0.0            estimate D2E/DX2                !
 ! D52   D(13,12,14,16)          0.0            estimate D2E/DX2                !
 ! D53   D(13,12,14,29)        180.0            estimate D2E/DX2                !
 ! D54   D(12,13,15,17)          0.0            estimate D2E/DX2                !
 ! D55   D(12,13,15,30)        180.0            estimate D2E/DX2                !
 ! D56   D(28,13,15,17)        180.0            estimate D2E/DX2                !
 ! D57   D(28,13,15,30)          0.0            estimate D2E/DX2                !
 ! D58   D(12,14,16,17)          0.0            estimate D2E/DX2                !
 ! D59   D(12,14,16,31)        180.0            estimate D2E/DX2                !
 ! D60   D(29,14,16,17)        180.0            estimate D2E/DX2                !
 ! D61   D(29,14,16,31)          0.0            estimate D2E/DX2                !
 ! D62   D(13,15,17,16)          0.0            estimate D2E/DX2                !
 ! D63   D(30,15,17,16)        180.0            estimate D2E/DX2                !
 ! D64   D(14,16,17,15)          0.0            estimate D2E/DX2                !
 ! D65   D(31,16,17,15)        180.0            estimate D2E/DX2                !
 --------------------------------------------------------------------------------
 Trust Radius=3.00D-01 FncErr=1.00D-07 GrdErr=1.00D-06 EigMax=2.50D+02 EigMin=1.00D-04
 Number of steps in this run=    158 maximum allowed number of steps=    186.
 GradGradGradGradGradGradGradGradGradGradGradGradGradGradGradGradGradGrad

                          Input orientation:                          
 ---------------------------------------------------------------------
 Center     Atomic      Atomic             Coordinates (Angstroms)
 Number     Number       Type             X           Y           Z
 ---------------------------------------------------------------------
      1          7           0        0.944193   -0.531773    0.000000
      2          7           0        0.500641   -1.701050    0.000000
      3          7           0       -2.613267    3.789125    0.000000
      4          6           0       -4.061161    3.679562    0.030000
      5          6           0       -2.179606    5.174742   -0.030000
      6          6           0        0.000000    0.491764    0.000000
      7          6           0       -1.389529    0.311436   -0.030000
      8          6           0        0.487862    1.799228    0.030000
      9          6           0       -2.242845    1.384676   -0.040000
     10          6           0       -0.355578    2.885895    0.040000
     11          6           0       -1.762829    2.723754    0.000000
     12          6           0        1.504464   -2.702170    0.000000
     13          6           0        2.877522   -2.463287    0.000000
     14          6           0        1.068924   -4.021308    0.000000
     15          6           0        3.733059   -3.549484    0.000000
     16          6           0        2.012000   -5.037165    0.000000
     17          7           0        3.326435   -4.822284    0.000000
     18          1           0       -4.401983    2.652387    0.460000
     19          1           0       -4.452640    4.513847    0.735236
     20          1           0       -4.492640    3.833847   -1.035236
     21          1           0       -1.101843    5.273370   -0.450000
     22          1           0       -2.897895    5.747434   -0.735271
     23          1           0       -2.237895    5.627434    1.035271
     24          1           0       -1.788311   -0.693839   -0.060000
     25          1           0        1.561015    1.948557    0.060000
     26          1           0       -3.301808    1.181083   -0.120000
     27          1           0        0.089454    3.867887    0.100000
     28          1           0        3.256786   -1.451951    0.000000
     29          1           0        0.008909   -4.238910    0.000000
     30          1           0        4.806872   -3.390751    0.000000
     31          1           0        1.692275   -6.074382    0.000000
 ---------------------------------------------------------------------
                    Distance matrix (angstroms):
                    1          2          3          4          5
     1  N    0.000000
     2  N    1.250579   0.000000
     3  N    5.596935   6.311770   0.000000
     4  C    6.541392   7.054213   1.452343   0.000000
     5  C    6.505639   7.379779   1.452204   2.404041   0.000000
     6  C    1.392526   2.249239   4.207345   5.162943   5.165449
     7  C    2.481564   2.761113   3.686835   4.299476   4.927065
     8  C    2.375438   3.500430   3.684778   4.922323   4.302683
     9  C    3.719084   4.129167   2.433144   2.928767   3.790607
    10  C    3.656701   4.666345   2.431992   3.789638   2.927593
    11  C    4.233961   4.970129   1.363180   2.489337   2.486352
    12  C    2.241546   1.417710   7.687172   8.467797   8.695919
    13  C    2.732857   2.496111   8.321143   9.267190   9.160509
    14  C    3.491763   2.388837   8.634894   9.253219   9.753009
    15  C    4.109057   3.723605   9.702115  10.630610  10.539100
    16  C    4.630202   3.662495   9.964762  10.623818  11.038728
    17  N    4.907501   4.210370  10.461187  11.263164  11.413059
    18  H    6.239557   6.572651   2.168704   1.164538   3.397254
    19  H    7.424598   7.981260   2.109286   1.160450   2.487781
    20  H    7.049078   7.525932   2.146103   1.159614   2.856331
    21  H    6.171584   7.170285   2.165614   3.395318   1.160905
    22  H    7.398020   8.220133   2.111069   2.492975   1.158155
    23  H    7.009515   7.891644   2.142912   2.851153   1.158935
    24  H    2.737963   2.501475   4.558631   4.929562   5.881688
    25  H    2.556581   3.801003   4.562447   5.882698   4.940508
    26  H    4.580044   4.772809   2.700069   2.615629   4.149307
    27  H    4.483033   5.584992   2.705717   4.155475   2.621718
    28  H    2.488938   2.767379   7.869333   8.937879   8.571366
    29  H    3.823300   2.585060   8.445422   8.903290   9.664747
    30  H    4.805626   4.625875  10.325167  11.341615  11.053481
    31  H    5.592865   4.532772  10.762270  11.324414  11.896855
                    6          7          8          9         10
     6  C    0.000000
     7  C    1.401502   0.000000
     8  C    1.395841   2.396189   0.000000
     9  C    2.414383   1.371165   2.762881   0.000000
    10  C    2.420723   2.775211   1.375622   2.412848   0.000000
    11  C    2.844177   2.441215   2.433364   1.423076   1.417126
    12  C    3.530528   4.178267   4.614863   5.544929   5.889637
    13  C    4.124616   5.089962   4.886759   6.405199   6.250463
    14  C    4.637932   4.981723   5.849545   6.339880   7.052677
    15  C    5.501583   6.414711   6.256271   7.749772   7.624477
    16  C    5.883638   6.338677   7.004296   7.703593   8.269335
    17  N    6.269312   6.971104   7.204361   8.339354   8.542531
    18  H    4.925175   3.846431   4.982305   2.553227   4.074840
    19  H    6.045141   5.256281   5.681116   3.908439   4.463126
    20  H    5.694299   4.800747   5.484506   3.471385   4.378359
    21  H    4.927506   4.987981   3.850614   4.073319   2.548931
    22  H    6.046527   5.685301   5.257121   4.466111   3.905487
    23  H    5.696935   5.487655   4.805776   4.376897   3.471270
    24  H    2.146465   1.081899   3.377047   2.127728   3.857100
    25  H    2.136028   3.375496   1.083908   3.846728   2.133619
    26  H    3.375129   2.102664   3.842682   1.081320   3.407676
    27  H    3.378788   3.853912   2.107838   3.409627   1.079797
    28  H    3.792714   4.969776   4.270598   6.188214   5.645147
    29  H    4.730682   4.760481   6.057178   6.057781   7.134234
    30  H    6.178992   7.218204   6.752083   8.514976   8.127040
    31  H    6.780713   7.090634   7.965252   8.433523   9.191402
                   11         12         13         14         15
    11  C    0.000000
    12  C    6.333708   0.000000
    13  C    6.959759   1.393683   0.000000
    14  C    7.315373   1.389180   2.387144   0.000000
    15  C    8.340162   2.384235   1.382667   2.705593   0.000000
    16  C    8.630249   2.389518   2.715507   1.386131   2.274915
    17  N    9.101829   2.795436   2.401331   2.395395   1.336175
    18  H    2.679893   7.985549   8.909148   8.641795  10.239810
    19  H    3.313622   9.386083  10.146539  10.192012  11.513624
    20  H    3.123442   8.930649   9.749097   9.680195  11.101685
    21  H    2.672067   8.402653   8.711699   9.555405  10.070826
    22  H    3.312346   9.556003  10.065386  10.569040  11.443027
    23  H    3.119107   9.190176   9.628034  10.252076  10.997268
    24  H    3.418215   3.857377   4.990445   4.386279   6.216417
    25  H    3.413571   4.651458   4.604472   5.990412   5.911838
    26  H    2.182359   6.180154   7.174953   6.795776   8.478326
    27  H    2.179448   6.721451   6.918604   7.950394   8.264578
    28  H    6.529399   2.152598   1.080112   3.374661   2.150926
    29  H    7.184549   2.144354   3.373689   1.082119   3.787427
    30  H    8.974862   3.373432   2.140696   3.790759   1.085482
    31  H    9.452245   3.377438   3.800634   2.145619   3.246523
                   16         17         18         19         20
    16  C    0.000000
    17  N    1.331883   0.000000
    18  H   10.023971  10.761540   0.000000
    19  H   11.556555  12.174478   1.882380   0.000000
    20  H   11.048842  11.710604   1.907825   1.896990   0.000000
    21  H   10.779872  11.033330   4.311447   3.634488   3.729910
    22  H   11.872458  12.288281   3.642838   2.470093   2.508985
    23  H   11.526798  11.884030   3.723589   2.497037   3.547933
    24  H    5.771520   6.573301   4.277722   5.903477   5.363247
    25  H    7.000521   6.997471   6.017701   6.572724   6.434330
    26  H    8.180316   8.943625   1.926531   3.628107   3.048425
    27  H    9.110770   9.274002   4.666910   4.631566   4.720753
    28  H    3.795162   3.371053   8.701375   9.775815   9.437424
    29  H    2.156290   3.368428   8.194971   9.851738   9.300810
    30  H    3.243761   2.059364  11.024252  12.196795  11.821483
    31  H    1.085377   2.058696  10.654017  12.264222  11.725949
                   21         22         23         24         25
    21  H    0.000000
    22  H    1.879340   0.000000
    23  H    1.903157   1.893362   0.000000
    24  H    6.019213   6.570933   6.431192   0.000000
    25  H    4.290139   5.911497   5.377454   4.267861   0.000000
    26  H    4.657849   4.625285   4.715570   2.410312   4.926303
    27  H    1.922777   3.626931   3.063869   4.935681   2.418867
    28  H    8.026836   9.500098   9.021142   5.102091   3.800354
    29  H    9.587478  10.426754  10.171758   3.975063   6.379450
    30  H   10.496781  11.975412  11.490352   7.125544   6.248792
    31  H   11.695344  12.702977  12.387515   6.408457   8.024237
                   26         27         28         29         30
    26  H    0.000000
    27  H    4.332202   0.000000
    28  H    7.068410   6.192146   0.000000
    29  H    6.352289   8.107814   4.279702   0.000000
    30  H    9.309498   8.657474   2.482280   4.872353   0.000000
    31  H    8.808918  10.071134   4.880017   2.490518   4.111276
                   31
    31  H    0.000000
 Stoichiometry    C13H14N4
 Framework group  C1[X(C13H14N4)]
 Deg. of freedom    87
 Full point group                 C1      NOp   1
 Largest Abelian subgroup         C1      NOp   1
 Largest concise Abelian subgroup C1      NOp   1
                         Standard orientation:                         
 ---------------------------------------------------------------------
 Center     Atomic      Atomic             Coordinates (Angstroms)
 Number     Number       Type             X           Y           Z
 ---------------------------------------------------------------------
      1          7           0       -0.961630   -0.499540   -0.003199
      2          7           0       -1.697863    0.511333    0.003556
      3          7           0        4.601455    0.115069    0.000655
      4          6           0        5.301716    1.386863    0.039087
      5          6           0        5.524204   -1.005656   -0.036840
      6          6           0        0.411676   -0.268983   -0.001723
      7          6           0        1.020769    0.993058   -0.023354
      8          6           0        1.239355   -1.392733    0.020767
      9          6           0        2.385975    1.120419   -0.032564
     10          6           0        2.610400   -1.281116    0.031452
     11          6           0        3.244411   -0.014121   -0.000147
     12          6           0       -3.085020    0.218597    0.001667
     13          6           0       -3.636086   -1.061484   -0.006825
     14          6           0       -3.951090    1.304732    0.008929
     15          6           0       -5.013354   -1.183551   -0.007579
     16          6           0       -5.317356    1.070910    0.007431
     17          7           0       -5.856449   -0.146968   -0.000648
     18          1           0        4.628269    2.231151    0.474742
     19          1           0        6.214294    1.253555    0.743414
     20          1           0        5.666843    1.670760   -1.024299
     21          1           0        5.017230   -1.959029   -0.463170
     22          1           0        6.396493   -0.712916   -0.740215
     23          1           0        5.935099   -1.211558    1.027068
     24          1           0        0.397339    1.876947   -0.047448
     25          1           0        0.777365   -2.372972    0.044266
     26          1           0        2.794774    2.118794   -0.105942
     27          1           0        3.189041   -2.191186    0.085375
     28          1           0       -2.996907   -1.932150   -0.012644
     29          1           0       -3.553439    2.311118    0.015607
     30          1           0       -5.467833   -2.169288   -0.014118
     31          1           0       -6.010767    1.905891    0.013015
 ---------------------------------------------------------------------
 Rotational constants (GHZ):           2.1609170           0.1556112           0.1454732
 Standard basis: 6-311G(d,p) (5D, 7F)
 There are   407 symmetry adapted cartesian basis functions of A   symmetry.
 There are   390 symmetry adapted basis functions of A   symmetry.
   390 basis functions,   656 primitive gaussians,   407 cartesian basis functions
    60 alpha electrons       60 beta electrons
       nuclear repulsion energy      1056.5885943432 Hartrees.
 NAtoms=   31 NActive=   31 NUniq=   31 SFac= 1.00D+00 NAtFMM=   60 NAOKFM=F Big=F
 Integral buffers will be    131072 words long.
 Raffenetti 2 integral format.
 Two-electron integral symmetry is turned on.
 ------------------------------------------------------------------------------
 Polarizable Continuum Model (PCM)
 =================================
 Model                : PCM.
 Atomic radii         : UFF (Universal Force Field).
 Polarization charges : Total charges.
 Charge compensation  : None.
 Solution method      : On-the-fly selection.
 Cavity type          : Scaled VdW (van der Waals Surface) (Alpha=1.100).
 Cavity algorithm     : GePol (No added spheres)
                        Default sphere list used, NSphG=   31.
                        Lebedev-Laikov grids with approx.  5.0 points / Ang**2.
                        Smoothing algorithm: York/Karplus (Gamma=1.0000).
                        Polarization charges: spherical gaussians, with
                                              point-specific exponents (IZeta= 3).
                        Self-potential: point-specific (ISelfS= 7).
                        Self-field    : sphere-specific E.n sum rule (ISelfD= 2).
 1st derivatives      : Analytical E(r).r(x)/FMM algorithm (CHGder, D1EAlg=3).
                        Cavity 1st derivative terms included.
 Solvent              : Acetonitrile, Eps=  35.688000 Eps(inf)=   1.806874
 ------------------------------------------------------------------------------
 One-electron integrals computed using PRISM.
 NBasis=   390 RedAO= T EigKep=  1.85D-04  NBF=   390
 NBsUse=   390 1.00D-06 EigRej= -1.00D+00 NBFU=   390
 ExpMin= 1.03D-01 ExpMax= 6.29D+03 ExpMxC= 9.49D+02 IAcc=3 IRadAn=         5 AccDes= 0.00D+00
 Harris functional with IExCor=20419 and IRadAn=       5 diagonalized for initial guess.
 HarFok:  IExCor=20419 AccDes= 0.00D+00 IRadAn=         5 IDoV= 1 UseB2=F ITyADJ=14
 ICtDFT=  3500011 ScaDFX=  1.000000  1.000000  1.000000  1.000000
 FoFCou: FMM=F IPFlag=           0 FMFlag=      100000 FMFlg1=           0
         NFxFlg=           0 DoJE=T BraDBF=F KetDBF=T FulRan=T
         wScrn=  0.000000 ICntrl=       500 IOpCl=  0 I1Cent=   200000004 NGrid=           0
         NMat0=    1 NMatS0=      1 NMatT0=    0 NMatD0=    1 NMtDS0=    0 NMtDT0=    0
 Petite list used in FoFCou.
 Requested convergence on RMS density matrix=1.00D-08 within 128 cycles.
 Requested convergence on MAX density matrix=1.00D-06.
 Requested convergence on             energy=1.00D-06.
 No special actions if energy rises.
 Inv3:  Mode=1 IEnd=    18125292.
 Iteration    1 A*A^-1 deviation from unit magnitude is 3.44D-15 for   1406.
 Iteration    1 A*A^-1 deviation from orthogonality  is 2.21D-15 for   2211    512.
 Iteration    1 A^-1*A deviation from unit magnitude is 3.44D-15 for   1406.
 Iteration    1 A^-1*A deviation from orthogonality  is 2.45D-15 for   1615    706.
 Error on total polarization charges =  0.01484
 SCF Done:  E(RCAM-B3LYP) =  -722.540801157     A.U. after   14 cycles
            NFock= 14  Conv=0.93D-08     -V/T= 2.0039

 **********************************************************************

            Population analysis using the SCF Density.

 **********************************************************************

 Orbital symmetries:
       Occupied  (A) (A) (A) (A) (A) (A) (A) (A) (A) (A) (A) (A)
                 (A) (A) (A) (A) (A) (A) (A) (A) (A) (A) (A) (A)
                 (A) (A) (A) (A) (A) (A) (A) (A) (A) (A) (A) (A)
                 (A) (A) (A) (A) (A) (A) (A) (A) (A) (A) (A) (A)
                 (A) (A) (A) (A) (A) (A) (A) (A) (A) (A) (A) (A)
       Virtual   (A) (A) (A) (A) (A) (A) (A) (A) (A) (A) (A) (A)
                 (A) (A) (A) (A) (A) (A) (A) (A) (A) (A) (A) (A)
                 (A) (A) (A) (A) (A) (A) (A) (A) (A) (A) (A) (A)
                 (A) (A) (A) (A) (A) (A) (A) (A) (A) (A) (A) (A)
                 (A) (A) (A) (A) (A) (A) (A) (A) (A) (A) (A) (A)
                 (A) (A) (A) (A) (A) (A) (A) (A) (A) (A) (A) (A)
                 (A) (A) (A) (A) (A) (A) (A) (A) (A) (A) (A) (A)
                 (A) (A) (A) (A) (A) (A) (A) (A) (A) (A) (A) (A)
                 (A) (A) (A) (A) (A) (A) (A) (A) (A) (A) (A) (A)
                 (A) (A) (A) (A) (A) (A) (A) (A) (A) (A) (A) (A)
                 (A) (A) (A) (A) (A) (A) (A) (A) (A) (A) (A) (A)
                 (A) (A) (A) (A) (A) (A) (A) (A) (A) (A) (A) (A)
                 (A) (A) (A) (A) (A) (A) (A) (A) (A) (A) (A) (A)
                 (A) (A) (A) (A) (A) (A) (A) (A) (A) (A) (A) (A)
                 (A) (A) (A) (A) (A) (A) (A) (A) (A) (A) (A) (A)
                 (A) (A) (A) (A) (A) (A) (A) (A) (A) (A) (A) (A)
                 (A) (A) (A) (A) (A) (A) (A) (A) (A) (A) (A) (A)
                 (A) (A) (A) (A) (A) (A) (A) (A) (A) (A) (A) (A)
                 (A) (A) (A) (A) (A) (A) (A) (A) (A) (A) (A) (A)
                 (A) (A) (A) (A) (A) (A) (A) (A) (A) (A) (A) (A)
                 (A) (A) (A) (A) (A) (A) (A) (A) (A) (A) (A) (A)
                 (A) (A) (A) (A) (A) (A) (A) (A) (A) (A) (A) (A)
                 (A) (A) (A) (A) (A) (A) (A) (A) (A) (A) (A) (A)
                 (A) (A) (A) (A) (A) (A) (A) (A) (A) (A) (A) (A)
                 (A) (A) (A) (A) (A) (A) (A) (A) (A) (A) (A) (A)
                 (A) (A) (A) (A) (A) (A) (A) (A) (A) (A) (A) (A)
                 (A) (A) (A) (A) (A) (A) (A) (A) (A) (A) (A) (A)
                 (A) (A) (A) (A) (A) (A)
 The electronic state is 1-A.
 Alpha  occ. eigenvalues --  -14.44037 -14.42722 -14.42095 -14.38483 -10.31156
 Alpha  occ. eigenvalues --  -10.29482 -10.29477 -10.29405 -10.28417 -10.28371
 Alpha  occ. eigenvalues --  -10.26894 -10.25778 -10.25659 -10.25601 -10.25479
 Alpha  occ. eigenvalues --  -10.24990 -10.24675  -1.12864  -1.05045  -1.03636
 Alpha  occ. eigenvalues --   -0.95563  -0.91425  -0.85625  -0.85190  -0.84429
 Alpha  occ. eigenvalues --   -0.79579  -0.79196  -0.73546  -0.71496  -0.69702
 Alpha  occ. eigenvalues --   -0.67717  -0.64901  -0.61805  -0.59235  -0.57976
 Alpha  occ. eigenvalues --   -0.55976  -0.54490  -0.54467  -0.52627  -0.52088
 Alpha  occ. eigenvalues --   -0.51657  -0.51004  -0.50198  -0.49961  -0.47645
 Alpha  occ. eigenvalues --   -0.47219  -0.46417  -0.46110  -0.45663  -0.44480
 Alpha  occ. eigenvalues --   -0.43971  -0.42885  -0.40363  -0.37756  -0.33374
 Alpha  occ. eigenvalues --   -0.33328  -0.32822  -0.32549  -0.30353  -0.24893
 Alpha virt. eigenvalues --   -0.05134   0.02669   0.03051   0.04303   0.07469
 Alpha virt. eigenvalues --    0.09198   0.10009   0.10620   0.10876   0.11755
 Alpha virt. eigenvalues --    0.13251   0.13601   0.14438   0.15698   0.15890
 Alpha virt. eigenvalues --    0.16204   0.17709   0.18606   0.20454   0.20712
 Alpha virt. eigenvalues --    0.21218   0.23014   0.24429   0.24583   0.26233
 Alpha virt. eigenvalues --    0.27441   0.29508   0.31372   0.31805   0.32557
 Alpha virt. eigenvalues --    0.32918   0.34440   0.35031   0.36360   0.38499
 Alpha virt. eigenvalues --    0.39072   0.40214   0.40649   0.40800   0.41541
 Alpha virt. eigenvalues --    0.42881   0.42966   0.43611   0.44220   0.44482
 Alpha virt. eigenvalues --    0.45043   0.46045   0.46676   0.47630   0.48272
 Alpha virt. eigenvalues --    0.48360   0.49380   0.49859   0.50146   0.50463
 Alpha virt. eigenvalues --    0.50898   0.52181   0.53810   0.55415   0.55786
 Alpha virt. eigenvalues --    0.55922   0.56302   0.57224   0.57620   0.57850
 Alpha virt. eigenvalues --    0.58602   0.59304   0.60402   0.61388   0.61781
 Alpha virt. eigenvalues --    0.62636   0.62754   0.63439   0.65208   0.66376
 Alpha virt. eigenvalues --    0.66873   0.67277   0.67911   0.69524   0.69752
 Alpha virt. eigenvalues --    0.70085   0.71037   0.71930   0.73362   0.73664
 Alpha virt. eigenvalues --    0.74729   0.75070   0.77268   0.78752   0.78980
 Alpha virt. eigenvalues --    0.80435   0.80951   0.81622   0.82156   0.83876
 Alpha virt. eigenvalues --    0.84483   0.85349   0.86001   0.87595   0.87738
 Alpha virt. eigenvalues --    0.90252   0.91112   0.92800   0.93556   0.98231
 Alpha virt. eigenvalues --    0.99380   1.00938   1.03012   1.04129   1.05006
 Alpha virt. eigenvalues --    1.05675   1.06403   1.07227   1.08411   1.09088
 Alpha virt. eigenvalues --    1.10059   1.11361   1.13230   1.14563   1.14756
 Alpha virt. eigenvalues --    1.16412   1.17210   1.19489   1.24085   1.24966
 Alpha virt. eigenvalues --    1.26101   1.26975   1.29664   1.30349   1.33203
 Alpha virt. eigenvalues --    1.34122   1.35508   1.36588   1.38879   1.40933
 Alpha virt. eigenvalues --    1.41161   1.42609   1.44037   1.44548   1.46380
 Alpha virt. eigenvalues --    1.47848   1.51442   1.51523   1.53282   1.53430
 Alpha virt. eigenvalues --    1.54441   1.55108   1.55749   1.57636   1.58345
 Alpha virt. eigenvalues --    1.61031   1.61527   1.62598   1.62818   1.63203
 Alpha virt. eigenvalues --    1.64859   1.65025   1.65626   1.65781   1.66952
 Alpha virt. eigenvalues --    1.68130   1.68950   1.69589   1.71670   1.72604
 Alpha virt. eigenvalues --    1.74266   1.75639   1.78436   1.78716   1.79115
 Alpha virt. eigenvalues --    1.79993   1.80587   1.80648   1.81137   1.84478
 Alpha virt. eigenvalues --    1.85525   1.85721   1.87695   1.90643   1.91417
 Alpha virt. eigenvalues --    1.94127   1.94959   1.96254   1.97701   1.99424
 Alpha virt. eigenvalues --    1.99906   2.00501   2.02221   2.02419   2.03325
 Alpha virt. eigenvalues --    2.04121   2.06097   2.06468   2.07273   2.07539
 Alpha virt. eigenvalues --    2.08205   2.09683   2.11867   2.12348   2.14728
 Alpha virt. eigenvalues --    2.16385   2.19255   2.20163   2.20866   2.21362
 Alpha virt. eigenvalues --    2.26677   2.27232   2.29187   2.30742   2.33770
 Alpha virt. eigenvalues --    2.35522   2.36234   2.38633   2.39624   2.40080
 Alpha virt. eigenvalues --    2.40307   2.42753   2.44135   2.45458   2.47916
 Alpha virt. eigenvalues --    2.49629   2.50894   2.51782   2.53668   2.54050
 Alpha virt. eigenvalues --    2.55687   2.56856   2.57687   2.60217   2.61515
 Alpha virt. eigenvalues --    2.62080   2.63619   2.64633   2.65557   2.67314
 Alpha virt. eigenvalues --    2.67642   2.67923   2.68770   2.69745   2.70051
 Alpha virt. eigenvalues --    2.70754   2.71051   2.72819   2.73504   2.75173
 Alpha virt. eigenvalues --    2.76472   2.76735   2.77127   2.78112   2.78924
 Alpha virt. eigenvalues --    2.79695   2.81254   2.83142   2.83225   2.85827
 Alpha virt. eigenvalues --    2.87738   2.89548   2.91799   2.93500   2.94399
 Alpha virt. eigenvalues --    2.98326   2.99629   3.01092   3.01436   3.02604
 Alpha virt. eigenvalues --    3.03529   3.03634   3.10766   3.12121   3.21663
 Alpha virt. eigenvalues --    3.23653   3.26220   3.30938   3.37661   3.39559
 Alpha virt. eigenvalues --    3.40805   3.46212   3.47468   3.50364   3.54724
 Alpha virt. eigenvalues --    3.56936   3.57767   3.63461   3.64227   3.67918
 Alpha virt. eigenvalues --    3.68500   3.70620   3.73692   3.74013   3.76554
 Alpha virt. eigenvalues --    3.77897   3.78237   3.90596   3.91743   3.92725
 Alpha virt. eigenvalues --    3.98412   4.02787   4.04908   4.05848   4.06698
 Alpha virt. eigenvalues --    4.12682   4.17454   4.19844   4.22590   4.40771
 Alpha virt. eigenvalues --    4.45427   4.47887   4.84413   4.88202   4.91499
 Alpha virt. eigenvalues --    5.15241   5.29245   5.51534  23.56267  23.65611
 Alpha virt. eigenvalues --   23.78272  23.84182  23.95925  23.96531  23.98890
 Alpha virt. eigenvalues --   24.05082  24.08500  24.17340  24.20146  24.20948
 Alpha virt. eigenvalues --   24.25885  35.51228  35.60936  35.68429  35.75712
          Condensed to atoms (all electrons):
               1          2          3          4          5          6
     1  N    6.593533   0.308304  -0.000002  -0.000000  -0.000000   0.523824
     2  N    0.308304   6.666101   0.000000   0.000000   0.000000  -0.125807
     3  N   -0.000002   0.000000   6.757685   0.307753   0.307617  -0.000293
     4  C   -0.000000   0.000000   0.307753   4.836896  -0.066619  -0.000056
     5  C   -0.000000   0.000000   0.307617  -0.066619   4.835725  -0.000055
     6  C    0.523824  -0.125807  -0.000293  -0.000056  -0.000055   5.241190
     7  C   -0.106719  -0.010360   0.005002   0.001339  -0.000143   0.175847
     8  C   -0.065875   0.007757   0.004600  -0.000150   0.001278   0.405914
     9  C    0.013187  -0.002529  -0.052511  -0.007953   0.004425   0.040257
    10  C    0.006457  -0.000540  -0.053467   0.004262  -0.007849  -0.027319
    11  C   -0.001975   0.000338   0.394052  -0.072260  -0.072214  -0.083480
    12  C   -0.116000   0.495718   0.000000   0.000000   0.000000   0.003288
    13  C   -0.010911  -0.096755   0.000000   0.000000  -0.000000   0.001564
    14  C    0.007074  -0.065838  -0.000000  -0.000000   0.000000  -0.000198
    15  C   -0.001791   0.008223  -0.000000  -0.000000  -0.000000  -0.000119
    16  C   -0.000379   0.004104  -0.000000  -0.000000  -0.000000  -0.000008
    17  N   -0.000002   0.000086   0.000000   0.000000  -0.000000  -0.000001
    18  H   -0.000001   0.000001  -0.020525   0.392550   0.006480  -0.000157
    19  H   -0.000000   0.000000  -0.038121   0.400644  -0.007901  -0.000003
    20  H   -0.000000   0.000000  -0.048523   0.404028  -0.004715  -0.000011
    21  H    0.000000   0.000000  -0.020311   0.006536   0.393144  -0.000148
    22  H   -0.000000   0.000000  -0.037704  -0.007756   0.401050  -0.000003
    23  H   -0.000000   0.000000  -0.048813  -0.004927   0.404383  -0.000008
    24  H   -0.023572   0.043414  -0.000061  -0.000014   0.000012  -0.082931
    25  H    0.010330  -0.000818  -0.000077   0.000013  -0.000004  -0.065269
    26  H    0.000029  -0.000249  -0.004949  -0.003134  -0.000319   0.009516
    27  H   -0.000195   0.000007  -0.005079  -0.000346  -0.003307   0.010516
    28  H    0.038616  -0.020088   0.000000   0.000000   0.000000   0.001389
    29  H   -0.000536   0.009614   0.000000   0.000000   0.000000   0.000021
    30  H   -0.000090  -0.000102  -0.000000   0.000000  -0.000000  -0.000001
    31  H    0.000007  -0.000165   0.000000  -0.000000   0.000000  -0.000000
               7          8          9         10         11         12
     1  N   -0.106719  -0.065875   0.013187   0.006457  -0.001975  -0.116000
     2  N   -0.010360   0.007757  -0.002529  -0.000540   0.000338   0.495718
     3  N    0.005002   0.004600  -0.052511  -0.053467   0.394052   0.000000
     4  C    0.001339  -0.000150  -0.007953   0.004262  -0.072260   0.000000
     5  C   -0.000143   0.001278   0.004425  -0.007849  -0.072214   0.000000
     6  C    0.175847   0.405914   0.040257  -0.027319  -0.083480   0.003288
     7  C    5.144057   0.032805   0.425470  -0.079071   0.015424   0.001122
     8  C    0.032805   4.820312  -0.072401   0.537710  -0.013872  -0.000298
     9  C    0.425470  -0.072401   5.057561  -0.022647   0.411412  -0.000130
    10  C   -0.079071   0.537710  -0.022647   4.982738   0.443444  -0.000022
    11  C    0.015424  -0.013872   0.411412   0.443444   4.787010   0.000014
    12  C    0.001122  -0.000298  -0.000130  -0.000022   0.000014   5.033105
    13  C    0.000154   0.000301  -0.000006   0.000002   0.000000   0.254810
    14  C    0.000213   0.000026   0.000001  -0.000000  -0.000000   0.449188
    15  C   -0.000004   0.000001   0.000000   0.000000  -0.000000  -0.011763
    16  C    0.000001  -0.000000   0.000000   0.000000  -0.000000  -0.063232
    17  N    0.000000   0.000000   0.000000  -0.000000  -0.000000  -0.041371
    18  H    0.001689   0.000010   0.002460  -0.000091  -0.014981   0.000000
    19  H    0.000010   0.000018   0.000532  -0.000078   0.004112   0.000000
    20  H   -0.000158   0.000013   0.000246   0.000254   0.002991   0.000000
    21  H    0.000038   0.001576  -0.000119   0.002374  -0.014935   0.000000
    22  H    0.000018   0.000008  -0.000099   0.000557   0.004019   0.000000
    23  H    0.000013  -0.000161   0.000229   0.000461   0.003018   0.000000
    24  H    0.438816   0.012259  -0.050484  -0.003180   0.011700   0.001024
    25  H    0.019359   0.412711  -0.004151  -0.038131   0.010660  -0.000122
    26  H   -0.019837  -0.000966   0.415532   0.005356  -0.049948  -0.000005
    27  H   -0.002127  -0.022229   0.006231   0.417844  -0.051709  -0.000001
    28  H    0.000646  -0.000341  -0.000036  -0.000047   0.000010  -0.074711
    29  H   -0.000170   0.000015  -0.000014  -0.000001   0.000001  -0.058877
    30  H   -0.000000   0.000000   0.000000  -0.000000  -0.000000   0.004461
    31  H   -0.000000   0.000000  -0.000000  -0.000000  -0.000000   0.005971
              13         14         15         16         17         18
     1  N   -0.010911   0.007074  -0.001791  -0.000379  -0.000002  -0.000001
     2  N   -0.096755  -0.065838   0.008223   0.004104   0.000086   0.000001
     3  N    0.000000  -0.000000  -0.000000  -0.000000   0.000000  -0.020525
     4  C    0.000000  -0.000000  -0.000000  -0.000000   0.000000   0.392550
     5  C   -0.000000   0.000000  -0.000000  -0.000000  -0.000000   0.006480
     6  C    0.001564  -0.000198  -0.000119  -0.000008  -0.000001  -0.000157
     7  C    0.000154   0.000213  -0.000004   0.000001   0.000000   0.001689
     8  C    0.000301   0.000026   0.000001  -0.000000   0.000000   0.000010
     9  C   -0.000006   0.000001   0.000000   0.000000   0.000000   0.002460
    10  C    0.000002  -0.000000   0.000000   0.000000  -0.000000  -0.000091
    11  C    0.000000  -0.000000  -0.000000  -0.000000  -0.000000  -0.014981
    12  C    0.254810   0.449188  -0.011763  -0.063232  -0.041371   0.000000
    13  C    5.245359   0.011290   0.438953  -0.032089  -0.060103   0.000000
    14  C    0.011290   5.001879  -0.038614   0.505738  -0.055628  -0.000000
    15  C    0.438953  -0.038614   4.773675  -0.121835   0.523097  -0.000000
    16  C   -0.032089   0.505738  -0.121835   4.735007   0.526937  -0.000000
    17  N   -0.060103  -0.055628   0.523097   0.526937   6.472652   0.000000
    18  H    0.000000  -0.000000  -0.000000  -0.000000   0.000000   0.550439
    19  H   -0.000000  -0.000000  -0.000000   0.000000   0.000000  -0.020358
    20  H   -0.000000  -0.000000  -0.000000  -0.000000   0.000000  -0.027678
    21  H   -0.000000   0.000000  -0.000000  -0.000000   0.000000  -0.000535
    22  H   -0.000000  -0.000000  -0.000000  -0.000000   0.000000   0.000264
    23  H   -0.000000  -0.000000  -0.000000  -0.000000   0.000000   0.000348
    24  H    0.000606  -0.000333  -0.000022  -0.000017   0.000000   0.000115
    25  H   -0.000205   0.000014  -0.000017  -0.000001   0.000000   0.000001
    26  H   -0.000000   0.000000   0.000000   0.000000  -0.000000  -0.003904
    27  H    0.000000   0.000000   0.000000   0.000000   0.000000   0.000010
    28  H    0.419707   0.010032  -0.033790  -0.001033   0.005703   0.000000
    29  H    0.016932   0.397379  -0.002305  -0.025714   0.005996   0.000000
    30  H   -0.050718   0.000120   0.425399   0.004399  -0.030520   0.000000
    31  H   -0.000257  -0.051664   0.004510   0.425533  -0.030612  -0.000000
              19         20         21         22         23         24
     1  N   -0.000000  -0.000000   0.000000  -0.000000  -0.000000  -0.023572
     2  N    0.000000   0.000000   0.000000   0.000000   0.000000   0.043414
     3  N   -0.038121  -0.048523  -0.020311  -0.037704  -0.048813  -0.000061
     4  C    0.400644   0.404028   0.006536  -0.007756  -0.004927  -0.000014
     5  C   -0.007901  -0.004715   0.393144   0.401050   0.404383   0.000012
     6  C   -0.000003  -0.000011  -0.000148  -0.000003  -0.000008  -0.082931
     7  C    0.000010  -0.000158   0.000038   0.000018   0.000013   0.438816
     8  C    0.000018   0.000013   0.001576   0.000008  -0.000161   0.012259
     9  C    0.000532   0.000246  -0.000119  -0.000099   0.000229  -0.050484
    10  C   -0.000078   0.000254   0.002374   0.000557   0.000461  -0.003180
    11  C    0.004112   0.002991  -0.014935   0.004019   0.003018   0.011700
    12  C    0.000000   0.000000   0.000000   0.000000   0.000000   0.001024
    13  C   -0.000000  -0.000000  -0.000000  -0.000000  -0.000000   0.000606
    14  C   -0.000000  -0.000000   0.000000  -0.000000  -0.000000  -0.000333
    15  C   -0.000000  -0.000000  -0.000000  -0.000000  -0.000000  -0.000022
    16  C    0.000000  -0.000000  -0.000000  -0.000000  -0.000000  -0.000017
    17  N    0.000000   0.000000   0.000000   0.000000   0.000000   0.000000
    18  H   -0.020358  -0.027678  -0.000535   0.000264   0.000348   0.000115
    19  H    0.561179  -0.035192   0.000282  -0.007530   0.006866  -0.000001
    20  H   -0.035192   0.564689   0.000334   0.006788  -0.001735   0.000001
    21  H    0.000282   0.000334   0.549658  -0.020333  -0.027661   0.000002
    22  H   -0.007530   0.006788  -0.020333   0.560050  -0.035289  -0.000000
    23  H    0.006866  -0.001735  -0.027661  -0.035289   0.564827  -0.000000
    24  H   -0.000001   0.000001   0.000002  -0.000000  -0.000000   0.542745
    25  H   -0.000000  -0.000000   0.000099  -0.000001  -0.000001   0.000406
    26  H    0.000234   0.000158   0.000011  -0.000033   0.000003  -0.010108
    27  H   -0.000032   0.000001  -0.003930   0.000220   0.000201  -0.000012
    28  H    0.000000   0.000000   0.000000   0.000000   0.000000   0.000223
    29  H    0.000000   0.000000   0.000000   0.000000   0.000000   0.001376
    30  H   -0.000000  -0.000000  -0.000000   0.000000  -0.000000   0.000000
    31  H    0.000000  -0.000000  -0.000000   0.000000  -0.000000  -0.000001
              25         26         27         28         29         30
     1  N    0.010330   0.000029  -0.000195   0.038616  -0.000536  -0.000090
     2  N   -0.000818  -0.000249   0.000007  -0.020088   0.009614  -0.000102
     3  N   -0.000077  -0.004949  -0.005079   0.000000   0.000000  -0.000000
     4  C    0.000013  -0.003134  -0.000346   0.000000   0.000000   0.000000
     5  C   -0.000004  -0.000319  -0.003307   0.000000   0.000000  -0.000000
     6  C   -0.065269   0.009516   0.010516   0.001389   0.000021  -0.000001
     7  C    0.019359  -0.019837  -0.002127   0.000646  -0.000170  -0.000000
     8  C    0.412711  -0.000966  -0.022229  -0.000341   0.000015   0.000000
     9  C   -0.004151   0.415532   0.006231  -0.000036  -0.000014   0.000000
    10  C   -0.038131   0.005356   0.417844  -0.000047  -0.000001  -0.000000
    11  C    0.010660  -0.049948  -0.051709   0.000010   0.000001  -0.000000
    12  C   -0.000122  -0.000005  -0.000001  -0.074711  -0.058877   0.004461
    13  C   -0.000205  -0.000000   0.000000   0.419707   0.016932  -0.050718
    14  C    0.000014   0.000000   0.000000   0.010032   0.397379   0.000120
    15  C   -0.000017   0.000000   0.000000  -0.033790  -0.002305   0.425399
    16  C   -0.000001   0.000000   0.000000  -0.001033  -0.025714   0.004399
    17  N    0.000000  -0.000000   0.000000   0.005703   0.005996  -0.030520
    18  H    0.000001  -0.003904   0.000010   0.000000   0.000000   0.000000
    19  H   -0.000000   0.000234  -0.000032   0.000000   0.000000  -0.000000
    20  H   -0.000000   0.000158   0.000001   0.000000   0.000000  -0.000000
    21  H    0.000099   0.000011  -0.003930   0.000000   0.000000  -0.000000
    22  H   -0.000001  -0.000033   0.000220   0.000000   0.000000   0.000000
    23  H   -0.000001   0.000003   0.000201   0.000000   0.000000  -0.000000
    24  H    0.000406  -0.010108  -0.000012   0.000223   0.001376   0.000000
    25  H    0.545991   0.000018  -0.010686   0.001735   0.000007  -0.000001
    26  H    0.000018   0.530344  -0.000252  -0.000000  -0.000003  -0.000000
    27  H   -0.010686  -0.000252   0.535193  -0.000005  -0.000000   0.000000
    28  H    0.001735  -0.000000  -0.000005   0.529050   0.000496  -0.003618
    29  H    0.000007  -0.000003  -0.000000   0.000496   0.536076   0.000082
    30  H   -0.000001  -0.000000   0.000000  -0.003618   0.000082   0.518572
    31  H    0.000000   0.000000   0.000000   0.000064  -0.004420  -0.000465
              31
     1  N    0.000007
     2  N   -0.000165
     3  N    0.000000
     4  C   -0.000000
     5  C    0.000000
     6  C   -0.000000
     7  C   -0.000000
     8  C    0.000000
     9  C   -0.000000
    10  C   -0.000000
    11  C   -0.000000
    12  C    0.005971
    13  C   -0.000257
    14  C   -0.051664
    15  C    0.004510
    16  C    0.425533
    17  N   -0.030612
    18  H   -0.000000
    19  H    0.000000
    20  H   -0.000000
    21  H   -0.000000
    22  H    0.000000
    23  H   -0.000000
    24  H   -0.000001
    25  H    0.000000
    26  H    0.000000
    27  H    0.000000
    28  H    0.000064
    29  H   -0.004420
    30  H   -0.000465
    31  H    0.519299
 Mulliken charges:
               1
     1  N   -0.173314
     2  N   -0.220417
     3  N   -0.446272
     4  C   -0.190805
     5  C   -0.190988
     6  C   -0.027458
     7  C   -0.043436
     8  C   -0.061020
     9  C   -0.164464
    10  C   -0.169015
    11  C    0.287167
    12  C    0.117833
    13  C   -0.138635
    14  C   -0.170678
    15  C    0.036401
    16  C    0.042589
    17  N   -0.316232
    18  H    0.133864
    19  H    0.135338
    20  H    0.138511
    21  H    0.133919
    22  H    0.135775
    23  H    0.138245
    24  H    0.118038
    25  H    0.118139
    26  H    0.132509
    27  H    0.129685
    28  H    0.125998
    29  H    0.124045
    30  H    0.132481
    31  H    0.132200
 Sum of Mulliken charges =  -0.00000
 Mulliken charges with hydrogens summed into heavy atoms:
               1
     1  N   -0.173314
     2  N   -0.220417
     3  N   -0.446272
     4  C    0.216907
     5  C    0.216951
     6  C   -0.027458
     7  C    0.074602
     8  C    0.057119
     9  C   -0.031956
    10  C   -0.039330
    11  C    0.287167
    12  C    0.117833
    13  C   -0.012637
    14  C   -0.046633
    15  C    0.168882
    16  C    0.174789
    17  N   -0.316232
 Electronic spatial extent (au):  <R**2>=           7051.6965
 Charge=              0.0000 electrons
 Dipole moment (field-independent basis, Debye):
    X=              9.8424    Y=              0.4506    Z=             -0.0180  Tot=              9.8528
 Quadrupole moment (field-independent basis, Debye-Ang):
   XX=            -90.1466   YY=            -87.6907   ZZ=           -104.7758
   XY=             -1.6489   XZ=             -0.0628   YZ=              0.0346
 Traceless Quadrupole moment (field-independent basis, Debye-Ang):
   XX=              4.0577   YY=              6.5137   ZZ=            -10.5714
   XY=             -1.6489   XZ=             -0.0628   YZ=              0.0346
 Octapole moment (field-independent basis, Debye-Ang**2):
  XXX=            400.5564  YYY=             -0.6663  ZZZ=             -0.0260  XYY=             -3.2564
  XXY=             23.3643  XXZ=             -0.0933  XZZ=              7.6304  YZZ=              0.7118
  YYZ=             -0.0573  XYZ=             -0.0311
 Hexadecapole moment (field-independent basis, Debye-Ang**3):
 XXXX=          -9124.7413 YYYY=           -709.4095 ZZZZ=           -129.2864 XXXY=           -113.1803
 XXXZ=             -1.4722 YYYX=              0.6758 YYYZ=              1.8908 ZZZX=              0.0955
 ZZZY=             -1.5799 XXYY=          -1370.0365 XXZZ=          -1536.8575 YYZZ=           -162.6721
 XXYZ=              1.2356 YYXZ=             -0.6798 ZZXY=              3.9871
 N-N= 1.056588594343D+03 E-N=-3.794109272550D+03  KE= 7.197101025791D+02
 D1PCM: PCM CHGder 1st derivatives, ID1Alg=3 FixD1E=F DoIter=F DoCFld=F I1PDM=0.
 Calling FoFJK, ICntrl=      2127 FMM=F ISym2X=0 I1Cent= 0 IOpClX= 0 NMat=1 NMatS=1 NMatT=0.
 ***** Axes restored to original set *****
 -------------------------------------------------------------------
 Center     Atomic                   Forces (Hartrees/Bohr)
 Number     Number              X              Y              Z
 -------------------------------------------------------------------
      1        7           0.000271568   -0.000766544    0.000381819
      2        7           0.000062312    0.000594421   -0.000064950
      3        7          -0.001188601    0.001424277   -0.000459089
      4        6          -0.026874213   -0.008171371    0.007853644
      5        6           0.013559927    0.023843704   -0.006107229
      6        6          -0.000935657    0.000856710    0.000276341
      7        6           0.000640271   -0.000586878   -0.000563867
      8        6           0.000426366   -0.000736423    0.000533824
      9        6          -0.002345120    0.000935654   -0.002373861
     10        6          -0.000702262    0.001755546    0.001215539
     11        6           0.000938315   -0.001212425    0.000235210
     12        6           0.000191574   -0.000215696   -0.000112931
     13        6          -0.000042895    0.000019422    0.000005250
     14        6          -0.000039240    0.000083697    0.000010209
     15        6           0.000016607    0.000001314    0.000016801
     16        6           0.000042001   -0.000019959    0.000009561
     17        7          -0.000107787    0.000044601   -0.000007132
     18        1           0.010087666    0.039132723   -0.016272109
     19        1           0.008241577   -0.028064984   -0.024156712
     20        1           0.008849840   -0.005481436    0.033699614
     21        1          -0.039232842   -0.000799768    0.015235763
     22        1           0.024636614   -0.014367266    0.023455119
     23        1           0.003541093   -0.009538939   -0.033359536
     24        1           0.000174588    0.000230240   -0.000311941
     25        1          -0.000290018   -0.000094536   -0.000057521
     26        1           0.001118055    0.001291593    0.000963072
     27        1          -0.001085246   -0.000161205   -0.000031492
     28        1           0.000042512   -0.000019090   -0.000008374
     29        1           0.000005168    0.000014762   -0.000002707
     30        1          -0.000013228    0.000004585   -0.000001137
     31        1           0.000011054    0.000003270   -0.000001179
 -------------------------------------------------------------------
 Cartesian Forces:  Max     0.039232842 RMS     0.010679510

 GradGradGradGradGradGradGradGradGradGradGradGradGradGradGradGradGradGrad
 Berny optimization.
 FormGI is forming the generalized inverse of G from B-inverse, IUseBI=4.
 Internal  Forces:  Max     0.043477719 RMS     0.007888092
 Search for a local minimum.
 Step number   1 out of a maximum of  158
 All quantities printed in internal units (Hartrees-Bohrs-Radians)
 Mixed Optimization -- RFO/linear search
 Second derivative matrix not updated -- first step.
 ITU=  0
     Eigenvalues ---    0.00999   0.01001   0.01349   0.01458   0.01791
     Eigenvalues ---    0.01862   0.01976   0.02059   0.02068   0.02078
     Eigenvalues ---    0.02121   0.02179   0.02212   0.02214   0.02229
     Eigenvalues ---    0.02249   0.02254   0.02297   0.02310   0.02313
     Eigenvalues ---    0.02367   0.02391   0.02498   0.03271   0.07390
     Eigenvalues ---    0.07412   0.07870   0.07892   0.15987   0.15996
     Eigenvalues ---    0.15998   0.15999   0.16000   0.16000   0.16000
     Eigenvalues ---    0.16000   0.16000   0.16000   0.16000   0.16000
     Eigenvalues ---    0.16000   0.16000   0.22000   0.22001   0.22828
     Eigenvalues ---    0.22934   0.23881   0.24000   0.25000   0.25000
     Eigenvalues ---    0.25000   0.25000   0.25000   0.25000   0.25000
     Eigenvalues ---    0.27446   0.27754   0.27793   0.27865   0.27923
     Eigenvalues ---    0.27990   0.35340   0.35352   0.35526   0.35739
     Eigenvalues ---    0.35766   0.35835   0.35981   0.36019   0.37940
     Eigenvalues ---    0.37958   0.40033   0.41116   0.42807   0.43485
     Eigenvalues ---    0.44486   0.44848   0.45015   0.46882   0.47387
     Eigenvalues ---    0.48000   0.48350   0.50390   0.52310   0.56214
     Eigenvalues ---    0.57833   0.83023
 RFO step:  Lambda=-3.07050615D-02 EMin= 9.99378763D-03
 Linear search not attempted -- first point.
 Maximum step size (   0.300) exceeded in Quadratic search.
    -- Step size scaled by   0.944
 Iteration  1 RMS(Cart)=  0.03868426 RMS(Int)=  0.00089691
 Iteration  2 RMS(Cart)=  0.00126323 RMS(Int)=  0.00007828
 Iteration  3 RMS(Cart)=  0.00000177 RMS(Int)=  0.00007827
 Iteration  4 RMS(Cart)=  0.00000000 RMS(Int)=  0.00007827
 Variable       Old X    -DE/DX   Delta X   Delta X   Delta X     New X
                                 (Linear)    (Quad)   (Total)
    R1        2.36325  -0.00054   0.00000  -0.00059  -0.00059   2.36266
    R2        2.63149   0.00049   0.00000   0.00092   0.00092   2.63241
    R3        2.67908   0.00013   0.00000   0.00027   0.00027   2.67936
    R4        2.74453  -0.00009   0.00000  -0.00020  -0.00020   2.74433
    R5        2.74427  -0.00006   0.00000  -0.00013  -0.00013   2.74413
    R6        2.57604  -0.00259   0.00000  -0.00442  -0.00442   2.57162
    R7        2.20066  -0.04348   0.00000  -0.13449  -0.13449   2.06616
    R8        2.19293  -0.03764   0.00000  -0.11512  -0.11512   2.07781
    R9        2.19135  -0.03498   0.00000  -0.10674  -0.10674   2.08461
   R10        2.19379  -0.04200   0.00000  -0.12863  -0.12863   2.06516
   R11        2.18860  -0.03667   0.00000  -0.11144  -0.11144   2.07716
   R12        2.19007  -0.03457   0.00000  -0.10529  -0.10529   2.08478
   R13        2.64846  -0.00001   0.00000   0.00010   0.00009   2.64855
   R14        2.63776  -0.00001   0.00000   0.00009   0.00009   2.63784
   R15        2.59113   0.00040   0.00000   0.00070   0.00070   2.59183
   R16        2.04449  -0.00027   0.00000  -0.00066  -0.00066   2.04384
   R17        2.59955   0.00034   0.00000   0.00061   0.00062   2.60016
   R18        2.04829  -0.00030   0.00000  -0.00074  -0.00074   2.04755
   R19        2.68922  -0.00195   0.00000  -0.00421  -0.00421   2.68502
   R20        2.04340  -0.00141   0.00000  -0.00342  -0.00342   2.03998
   R21        2.67798  -0.00190   0.00000  -0.00403  -0.00403   2.67395
   R22        2.04052  -0.00060   0.00000  -0.00144  -0.00144   2.03908
   R23        2.63368  -0.00002   0.00000  -0.00004  -0.00004   2.63364
   R24        2.62517  -0.00008   0.00000  -0.00016  -0.00016   2.62501
   R25        2.61286  -0.00003   0.00000  -0.00006  -0.00006   2.61280
   R26        2.04112  -0.00000   0.00000  -0.00001  -0.00001   2.04111
   R27        2.61941  -0.00002   0.00000  -0.00005  -0.00005   2.61936
   R28        2.04491  -0.00001   0.00000  -0.00002  -0.00002   2.04489
   R29        2.52500  -0.00001   0.00000  -0.00001  -0.00001   2.52499
   R30        2.05126  -0.00001   0.00000  -0.00003  -0.00003   2.05123
   R31        2.51689  -0.00007   0.00000  -0.00011  -0.00011   2.51678
   R32        2.05107  -0.00001   0.00000  -0.00002  -0.00002   2.05105
    A1        2.03393  -0.00032   0.00000  -0.00106  -0.00106   2.03286
    A2        1.99228   0.00026   0.00000   0.00086   0.00086   1.99314
    A3        1.94993   0.00730   0.00000   0.02456   0.02456   1.97449
    A4        2.16880  -0.00388   0.00000  -0.01303  -0.01303   2.15577
    A5        2.16446  -0.00343   0.00000  -0.01153  -0.01153   2.15293
    A6        1.94544   0.00197   0.00000   0.00920   0.00906   1.95449
    A7        1.86987   0.00591   0.00000   0.02983   0.02952   1.89939
    A8        1.91977   0.00525   0.00000   0.02590   0.02563   1.94540
    A9        1.88704  -0.00388   0.00000  -0.01918  -0.01935   1.86769
   A10        1.92586  -0.00428   0.00000  -0.02226  -0.02237   1.90349
   A11        1.91462  -0.00497   0.00000  -0.02348  -0.02391   1.89071
   A12        1.94526   0.00200   0.00000   0.00934   0.00921   1.95447
   A13        1.87464   0.00521   0.00000   0.02601   0.02573   1.90037
   A14        1.91632   0.00559   0.00000   0.02800   0.02772   1.94405
   A15        1.88963  -0.00383   0.00000  -0.01969  -0.01982   1.86981
   A16        1.92416  -0.00425   0.00000  -0.02143  -0.02157   1.90259
   A17        1.91283  -0.00476   0.00000  -0.02240  -0.02281   1.89002
   A18        2.18668  -0.00017   0.00000  -0.00087  -0.00087   2.18581
   A19        2.03924  -0.00026   0.00000  -0.00114  -0.00114   2.03810
   A20        2.05726   0.00043   0.00000   0.00202   0.00201   2.05927
   A21        2.11351  -0.00042   0.00000  -0.00115  -0.00116   2.11234
   A22        2.07784   0.00014   0.00000   0.00025   0.00025   2.07809
   A23        2.09174   0.00028   0.00000   0.00096   0.00096   2.09270
   A24        2.12444  -0.00038   0.00000  -0.00100  -0.00101   2.12343
   A25        2.06654   0.00013   0.00000   0.00025   0.00025   2.06679
   A26        2.09211   0.00024   0.00000   0.00079   0.00079   2.09290
   A27        2.12516  -0.00082   0.00000  -0.00309  -0.00309   2.12206
   A28        2.05176   0.00150   0.00000   0.00702   0.00702   2.05877
   A29        2.10550  -0.00068   0.00000  -0.00380  -0.00381   2.10169
   A30        2.11563  -0.00085   0.00000  -0.00327  -0.00327   2.11235
   A31        2.05567   0.00137   0.00000   0.00625   0.00624   2.06192
   A32        2.11168  -0.00052   0.00000  -0.00306  -0.00307   2.10861
   A33        2.12347  -0.00124   0.00000  -0.00404  -0.00404   2.11943
   A34        2.12951  -0.00081   0.00000  -0.00259  -0.00259   2.12692
   A35        2.03020   0.00204   0.00000   0.00663   0.00663   2.03683
   A36        2.18529   0.00012   0.00000   0.00038   0.00038   2.18567
   A37        2.03595  -0.00018   0.00000  -0.00060  -0.00060   2.03534
   A38        2.06195   0.00006   0.00000   0.00022   0.00022   2.06217
   A39        2.06570  -0.00005   0.00000  -0.00018  -0.00018   2.06552
   A40        2.10183   0.00007   0.00000   0.00032   0.00032   2.10216
   A41        2.11565  -0.00002   0.00000  -0.00015  -0.00015   2.11550
   A42        2.07443  -0.00001   0.00000  -0.00004  -0.00004   2.07439
   A43        2.09217  -0.00001   0.00000  -0.00005  -0.00005   2.09212
   A44        2.11659   0.00002   0.00000   0.00009   0.00009   2.11668
   A45        2.16521  -0.00002   0.00000  -0.00004  -0.00004   2.16516
   A46        2.09120   0.00000   0.00000  -0.00001  -0.00001   2.09119
   A47        2.02678   0.00001   0.00000   0.00005   0.00005   2.02683
   A48        2.15701  -0.00004   0.00000  -0.00014  -0.00014   2.15687
   A49        2.09432   0.00003   0.00000   0.00012   0.00012   2.09444
   A50        2.03185   0.00001   0.00000   0.00002   0.00002   2.03187
   A51        2.04206   0.00005   0.00000   0.00018   0.00018   2.04225
    D1        3.14159  -0.00016   0.00000  -0.00239  -0.00239   3.13920
    D2       -0.02623   0.00011   0.00000   0.00229   0.00229  -0.02393
    D3        3.11750   0.00017   0.00000   0.00321   0.00321   3.12072
    D4        0.00000  -0.00001   0.00000  -0.00020  -0.00020  -0.00020
    D5        3.14159  -0.00003   0.00000  -0.00052  -0.00052   3.14108
    D6       -2.75636   0.00021   0.00000   0.00696   0.00694  -2.74942
    D7       -0.69521   0.00022   0.00000   0.00708   0.00698  -0.68823
    D8        1.38488   0.00065   0.00000   0.01087   0.01100   1.39589
    D9        0.38517   0.00021   0.00000   0.00694   0.00691   0.39209
   D10        2.44632   0.00021   0.00000   0.00706   0.00695   2.45327
   D11       -1.75677   0.00065   0.00000   0.01085   0.01098  -1.74579
   D12       -2.76506   0.00042   0.00000   0.00907   0.00907  -2.75599
   D13       -0.69795   0.00012   0.00000   0.00649   0.00637  -0.69157
   D14        1.38087   0.00058   0.00000   0.01051   0.01062   1.39149
   D15        0.37659   0.00042   0.00000   0.00910   0.00910   0.38569
   D16        2.44371   0.00012   0.00000   0.00651   0.00640   2.45011
   D17       -1.76066   0.00058   0.00000   0.01053   0.01064  -1.75002
   D18        0.05803   0.00211   0.00000   0.03798   0.03798   0.09600
   D19       -3.08330   0.00210   0.00000   0.03781   0.03781  -3.04549
   D20       -3.08364   0.00211   0.00000   0.03795   0.03795  -3.04569
   D21        0.05822   0.00210   0.00000   0.03778   0.03778   0.09600
   D22       -3.13083  -0.00025   0.00000  -0.00453  -0.00453  -3.13537
   D23       -0.00468  -0.00002   0.00000  -0.00022  -0.00022  -0.00491
   D24        0.00860  -0.00031   0.00000  -0.00546  -0.00547   0.00313
   D25        3.13475  -0.00008   0.00000  -0.00116  -0.00116   3.13360
   D26       -3.13545  -0.00010   0.00000  -0.00178  -0.00179  -3.13724
   D27       -0.00897   0.00006   0.00000   0.00116   0.00115  -0.00782
   D28        0.00811  -0.00005   0.00000  -0.00093  -0.00094   0.00718
   D29        3.13460   0.00011   0.00000   0.00201   0.00200   3.13660
   D30       -0.01698   0.00040   0.00000   0.00689   0.00689  -0.01009
   D31        3.08246   0.00055   0.00000   0.01021   0.01022   3.09268
   D32        3.14017   0.00016   0.00000   0.00256   0.00255  -3.14046
   D33       -0.04357   0.00032   0.00000   0.00588   0.00588  -0.03769
   D34       -0.01664   0.00035   0.00000   0.00605   0.00604  -0.01060
   D35        3.10336   0.00007   0.00000   0.00141   0.00140   3.10475
   D36        3.14027   0.00018   0.00000   0.00307   0.00307  -3.13984
   D37       -0.02291  -0.00009   0.00000  -0.00157  -0.00158  -0.02449
   D38       -3.13294  -0.00011   0.00000  -0.00193  -0.00194  -3.13488
   D39        0.00840  -0.00010   0.00000  -0.00177  -0.00178   0.00662
   D40        0.05208  -0.00032   0.00000  -0.00561  -0.00560   0.04647
   D41       -3.08976  -0.00032   0.00000  -0.00545  -0.00544  -3.09521
   D42       -3.13363  -0.00026   0.00000  -0.00445  -0.00444  -3.13807
   D43        0.00821  -0.00026   0.00000  -0.00461  -0.00460   0.00361
   D44        0.03025   0.00000   0.00000   0.00022   0.00021   0.03046
   D45       -3.11109   0.00000   0.00000   0.00007   0.00005  -3.11104
   D46        3.14159  -0.00002   0.00000  -0.00031  -0.00031   3.14129
   D47       -0.00000  -0.00002   0.00000  -0.00030  -0.00030  -0.00030
   D48        0.00000   0.00000   0.00000   0.00001   0.00001   0.00001
   D49        3.14159   0.00000   0.00000   0.00002   0.00002  -3.14157
   D50        3.14159   0.00001   0.00000   0.00026   0.00026  -3.14133
   D51        0.00000   0.00001   0.00000   0.00022   0.00022   0.00022
   D52       -0.00000  -0.00000   0.00000  -0.00003  -0.00003  -0.00003
   D53        3.14159  -0.00000   0.00000  -0.00007  -0.00007   3.14152
   D54       -0.00000   0.00000   0.00000   0.00003   0.00003   0.00003
   D55        3.14159  -0.00000   0.00000  -0.00002  -0.00002   3.14157
   D56        3.14159   0.00000   0.00000   0.00002   0.00002  -3.14157
   D57        0.00000  -0.00000   0.00000  -0.00003  -0.00003  -0.00003
   D58        0.00000  -0.00000   0.00000   0.00000   0.00000   0.00000
   D59        3.14159   0.00000   0.00000   0.00000   0.00000  -3.14159
   D60        3.14159   0.00000   0.00000   0.00004   0.00004  -3.14155
   D61       -0.00000   0.00000   0.00000   0.00005   0.00005   0.00005
   D62        0.00000  -0.00000   0.00000  -0.00006  -0.00006  -0.00006
   D63        3.14159  -0.00000   0.00000  -0.00001  -0.00001   3.14159
   D64       -0.00000   0.00000   0.00000   0.00004   0.00004   0.00004
   D65        3.14159   0.00000   0.00000   0.00004   0.00004  -3.14156
         Item               Value     Threshold  Converged?
 Maximum Force            0.043478     0.000450     NO 
 RMS     Force            0.007888     0.000300     NO 
 Maximum Displacement     0.194579     0.001800     NO 
 RMS     Displacement     0.038467     0.001200     NO 
 Predicted change in Energy=-1.679383D-02
 GradGradGradGradGradGradGradGradGradGradGradGradGradGradGradGradGradGrad

                          Input orientation:                          
 ---------------------------------------------------------------------
 Center     Atomic      Atomic             Coordinates (Angstroms)
 Number     Number       Type             X           Y           Z
 ---------------------------------------------------------------------
      1          7           0        0.942739   -0.524301    0.009840
      2          7           0        0.498913   -1.693036   -0.005863
      3          7           0       -2.613009    3.787880   -0.000435
      4          6           0       -4.058073    3.658402    0.062987
      5          6           0       -2.166238    5.168088   -0.064564
      6          6           0       -0.002403    0.499008    0.004768
      7          6           0       -1.391219    0.316837   -0.043698
      8          6           0        0.485706    1.806051    0.048233
      9          6           0       -2.245164    1.390064   -0.051984
     10          6           0       -0.358522    2.892556    0.052638
     11          6           0       -1.762635    2.725452    0.000169
     12          6           0        1.501550   -2.695545   -0.002908
     13          6           0        2.874874   -2.459013    0.015278
     14          6           0        1.063663   -4.013717   -0.019231
     15          6           0        3.728395   -3.546755    0.016110
     16          6           0        2.004843   -5.031291   -0.016791
     17          7           0        3.319479   -4.818717    0.000470
     18          1           0       -4.364749    2.702120    0.495336
     19          1           0       -4.456880    4.448857    0.714986
     20          1           0       -4.517190    3.766718   -0.934197
     21          1           0       -1.163346    5.254074   -0.490130
     22          1           0       -2.845401    5.731771   -0.719701
     23          1           0       -2.175337    5.640597    0.932304
     24          1           0       -1.788160   -0.688377   -0.085382
     25          1           0        1.558121    1.954855    0.090593
     26          1           0       -3.303380    1.194205   -0.136599
     27          1           0        0.078807    3.876539    0.122199
     28          1           0        3.256059   -1.448489    0.028347
     29          1           0        0.003325   -4.229221   -0.033487
     30          1           0        4.802397   -3.390040    0.030074
     31          1           0        1.683417   -6.067897   -0.029362
 ---------------------------------------------------------------------
                    Distance matrix (angstroms):
                    1          2          3          4          5
     1  N    0.000000
     2  N    1.250268   0.000000
     3  N    5.589128   6.302740   0.000000
     4  C    6.519658   7.029135   1.452238   0.000000
     5  C    6.486491   7.360808   1.452133   2.423729   0.000000
     6  C    1.393011   2.248664   4.199044   5.141363   5.146581
     7  C    2.481479   2.759279   3.680053   4.276628   4.912813
[...]
 005068,-0.00009028,0.00001346,0.00001374,-0.00000331,-0.00001100,0.000
 00638,-0.00000111,0.00000012,0.00001723,0.00000499,0.00001117,0.000006
 88,-0.00005833,-0.00000434,0.00043859,0.01025679,0.00185649,0.02816269
 ,-0.00100670,-0.00074268,-0.00001911,0.00020435,0.00031515,-0.00002576
 ,-0.00095107,0.00027691,0.00002353,-0.00133998,0.00271638,0.00003201,0
 .00008959,-0.00004823,0.00001301,0.00049563,0.00359274,-0.00016347,-0.
 01527251,-0.00424590,-0.00063046,0.00065264,-0.00024298,0.00002329,-0.
 33853396,-0.05149203,-0.00979393,0.00050031,-0.00181238,-0.00014806,-0
 .00632749,0.00054743,-0.00027494,0.00014055,-0.00020070,0.00001115,-0.
 00008745,0.00008508,-0.00000147,-0.00009677,0.00010183,-0.00000076,0.0
 0004917,-0.00002370,0.00000111,0.00004923,-0.00005447,0.00000030,-0.00
 007508,0.00006894,-0.00000107,-0.00045988,0.00109751,-0.00045753,0.000
 54903,0.00059368,0.00003524,-0.00043531,0.00100952,0.00047054,0.000001
 90,-0.00000974,-0.00001975,0.00005317,-0.00006856,0.00000021,0.0000017
 8,-0.00000171,0.00001901,0.00109264,-0.00010222,0.00019871,-0.00009533
 ,-0.00000558,0.00001613,0.36113489,0.00173240,0.00047775,0.00007531,-0
 .00031282,0.00007325,-0.00003282,0.00059106,0.00163760,0.00007952,-0.0
 0002698,-0.00220390,-0.00003190,-0.00006481,-0.00013752,0.00000325,0.0
 0257953,-0.00324850,-0.00015458,0.02685858,0.00717010,0.00084288,0.000
 53307,-0.00151980,-0.00000783,-0.05014033,-0.06794550,-0.00210154,-0.0
 0131175,-0.00517078,-0.00022396,-0.02907801,0.00091237,-0.00089164,-0.
 00005034,0.00005806,0.00000702,0.00004573,-0.00004110,-0.00000001,0.00
 005519,-0.00004653,0.00000072,-0.00002890,0.00000982,-0.00000049,-0.00
 002355,0.00002238,-0.00000032,0.00003593,-0.00003694,0.00000016,0.0008
 9546,-0.00096369,-0.00059300,0.00007531,0.00031010,0.00001328,0.000891
 13,-0.00102571,0.00060255,0.00006924,0.00006056,-0.00004676,0.00003989
 ,-0.00002247,0.00000071,0.00006707,0.00006456,0.00005261,-0.00048025,0
 .00119479,0.00012290,-0.00000393,0.00011365,0.00001487,0.04856634,0.07
 029658,0.00002844,0.00000363,-0.00083601,-0.00003816,-0.00001398,0.001
 29941,0.00003024,0.00006971,-0.00158218,-0.00002350,0.00004658,-0.0005
 3966,0.00001273,0.00000376,-0.00038898,-0.00018252,-0.00012531,0.00854
 714,-0.00002645,-0.00005600,0.00370462,0.00003860,-0.00003004,-0.00031
 941,-0.00976904,-0.00214150,-0.03465434,-0.00013789,-0.00023821,0.0043
 9967,-0.00084950,-0.00003347,0.00354178,0.00001441,0.00000229,-0.00037
 853,-0.00000219,0.00000103,0.00002409,-0.00000176,0.00000237,-0.000002
 08,0.00000104,-0.00000021,-0.00000683,0.00000109,-0.00000127,0.0000034
 4,-0.00000187,0.00000101,0.00000852,0.00087363,-0.00107931,0.00002038,
 0.00002575,0.00002903,-0.00028641,-0.00086553,0.00109770,0.00006275,0.
 00001814,0.00015096,0.00001330,0.00000226,-0.00000250,-0.00000081,-0.0
 0001620,-0.00014933,0.00000944,0.00019108,0.00013348,-0.00583929,0.000
 01609,0.00001478,-0.00065670,0.01068737,0.00230470,0.02430041,0.000505
 16,0.00097894,-0.00000068,-0.00023392,0.00034070,0.00000695,0.00178616
 ,-0.00004868,0.00010006,-0.00017309,-0.00001268,0.00000578,-0.00138030
 ,0.00008718,-0.00001792,-0.00164457,0.00270437,-0.00021770,-0.00126576
 ,0.00086857,-0.00000721,0.01158373,0.02051467,0.00066055,-0.00556712,0
 .00015333,-0.00029626,-0.10533083,-0.10580428,-0.00413673,-0.00579111,
 -0.02914530,-0.00082710,0.00006413,0.00003592,0.00001084,-0.00002407,0
 .00002686,-0.00000068,-0.00004343,0.00003418,-0.00000133,0.00000994,-0
 .00001211,-0.00000061,0.00001435,-0.00000384,-0.00000055,-0.00001457,0
 .00001777,0.00000031,0.00007463,0.00005499,-0.00005194,-0.00002281,0.0
 0005464,0.00000050,0.00008043,0.00005172,0.00005786,-0.00032836,0.0008
 8865,-0.00066930,0.00047836,0.00009222,0.00002410,-0.00041986,0.000931
 26,0.00068064,0.00010600,-0.00003363,0.00002306,0.00094475,-0.00049864
 ,0.00016566,-0.00035477,-0.00148639,-0.00002592,0.10694823,-0.00080657
 ,-0.00044289,-0.00005475,0.00019449,-0.00079503,-0.00000506,-0.0003280
 9,-0.00107173,0.00000307,0.00000084,0.00010410,0.00000964,0.00285700,-
 0.00195067,0.00005662,0.00419169,-0.00053902,-0.00003937,0.00016888,0.
 00039918,0.00002101,-0.01110131,-0.01894792,-0.00073390,-0.00035743,0.
 00091813,-0.00008603,-0.10704510,-0.30208906,-0.00829058,0.00039090,0.
 00052629,-0.00004350,-0.00021527,0.00015500,0.00000248,0.00008236,-0.0
 0009216,0.00000017,0.00012145,-0.00012709,0.00000056,-0.00004631,0.000
 02541,-0.00000124,-0.00006190,0.00005479,-0.00000133,0.00008374,-0.000
 06554,0.00000137,-0.00002298,-0.00000658,-0.00000962,-0.00005004,0.000
 05675,-0.00000029,-0.00001741,-0.00000766,0.00000768,0.00108942,-0.001
 00445,-0.00027361,0.00060066,0.00039558,0.00003079,0.00104476,-0.00097
 435,0.00029372,-0.00005713,-0.00006420,0.00001103,0.00002056,0.0011109
 8,0.00012160,0.00005993,-0.00002708,0.00001002,0.10920323,0.32447186,-
 0.00003519,-0.00000333,0.00118805,0.00000400,-0.00000103,-0.00024598,0
 .00009528,0.00001071,-0.00171515,0.00000612,0.00000923,-0.00039391,0.0
 0003595,-0.00002141,-0.00072492,-0.00018945,-0.00008228,0.00773170,-0.
 00002067,0.00004087,-0.00043217,0.00004893,0.00017692,0.00244048,-0.00
 030635,-0.00007149,0.00481544,-0.00416009,-0.00825484,-0.03303422,-0.0
 0025706,-0.00089394,0.00331785,0.00000605,0.00000966,-0.00028977,0.000
 00043,-0.00000142,0.00001830,0.00000030,-0.00000190,0.00002598,-0.0000
 0122,-0.00000027,0.00002261,-0.00000160,0.00000043,0.00003019,0.000001
 57,-0.00000052,-0.00001320,0.00015969,-0.00001859,0.00001425,-0.000001
 46,0.00000277,-0.00000224,-0.00015663,0.00002109,0.00000947,-0.0008740
 6,0.00115858,0.00004033,0.00003334,0.00001583,-0.00028578,0.00089186,-
 0.00114879,0.00009660,0.00002269,0.00001172,-0.00071748,0.00017593,0.0
 0010677,-0.00513950,0.00000424,-0.00003443,-0.00045822,0.00451665,0.00
 896915,0.02373152,-0.00175429,-0.00039330,-0.00006882,0.00235321,0.000
 93805,0.00019861,0.00017278,-0.00022191,0.00000062,-0.00007235,-0.0000
 2013,-0.00000234,0.00003475,0.00006514,0.00000215,0.00072208,0.0008765
 5,0.00004868,-0.00004240,-0.00037608,-0.00000623,0.00004965,0.00013323
 ,-0.00000051,0.00014081,-0.00009430,0.00000064,0.00014506,-0.00010399,
 0.00000317,-0.00015400,0.00022919,-0.00000015,-0.00328888,-0.03120490,
 -0.00081755,-0.09666333,-0.09831094,-0.00333208,-0.00577422,0.00027128
 ,-0.00034194,0.01242292,0.01921714,0.00063155,-0.00153264,0.00037888,-
 0.00002846,-0.00176149,0.00460615,-0.00019409,0.00001313,0.00001256,-0
 .00000267,0.00000708,-0.00000705,0.00000008,0.00001304,0.00001233,0.00
 000389,-0.00001474,-0.00001068,0.00000376,0.00000416,-0.00000897,-0.00
 000005,-0.00001440,-0.00001051,-0.00000492,-0.00006008,0.00001214,-0.0
 0000066,0.00002009,0.00021476,0.00000428,0.00003440,-0.00003535,-0.000
 00009,0.00000326,-0.00001516,0.00000024,0.09445863,0.00383833,-0.00047
 582,0.00009643,-0.00026336,-0.00329871,0.00000807,-0.00004596,0.000057
 65,-0.00000013,0.00001895,0.00000462,0.00000072,-0.00000777,-0.0000165
 2,-0.00000063,0.00000660,0.00020928,0.00001173,0.00009408,-0.00006059,
 0.00000291,-0.00000326,0.00000207,-0.00000287,0.00000972,0.00005477,0.
 00000024,-0.00004829,0.00001044,-0.00000054,0.00003283,-0.00004997,-0.
 00000020,-0.00377254,0.00050971,-0.00020267,-0.09846367,-0.31175297,-0
 .00764169,-0.00042185,0.00125681,-0.00011435,-0.01162198,-0.01448782,-
 0.00062705,0.00098190,0.00071272,0.00004475,0.00329558,-0.00245499,-0.
 00010666,-0.00000345,-0.00000312,0.00000127,-0.00000179,0.00000121,-0.
 00000003,-0.00000332,-0.00000314,-0.00000162,0.00000380,0.00000257,-0.
 00000093,-0.00000087,0.00000200,0.00000001,0.00000378,0.00000250,0.000
 00129,0.00001027,0.00000625,0.00000104,-0.00000364,-0.00009223,-0.0000
 0242,0.00000036,-0.00000064,-0.00000024,0.00000295,-0.00000157,0.00000
 037,0.10610300,0.32921804,0.00001908,-0.00001988,0.00024812,0.00017918
 ,0.00003209,-0.00419272,0.00000341,-0.00000429,-0.00000251,-0.00000127
 ,-0.00000032,-0.00000463,0.00000058,0.00000119,0.00000482,0.00002895,0
 .00003550,-0.00039422,0.00000315,-0.00000974,-0.00007081,-0.00000316,0
 .00000011,0.00015755,0.00000211,-0.00000209,0.00005832,0.00000363,-0.0
 0000176,-0.00003647,-0.00000345,0.00000450,0.00000871,-0.00033085,-0.0
 0094588,0.00574671,-0.00333052,-0.00764051,-0.04120752,-0.00035475,-0.
 00009791,0.00682697,0.00007048,0.00022223,0.00225464,-0.00001931,0.000
 02826,-0.00024684,-0.00021751,-0.00006821,0.00834678,0.00000162,-0.000
 00165,0.00000078,0.00000014,-0.00000015,-0.00000010,-0.00000115,0.0000
 0210,0.00000087,0.00000109,-0.00000071,-0.00000109,0.00000008,-0.00000
 019,0.00000011,-0.00000160,0.00000034,-0.00000131,-0.00000036,0.000001
 03,-0.00003248,-0.00000011,0.00000330,0.00002208,0.00000051,-0.0000011
 8,0.00001304,0.00000062,-0.00000011,-0.00001636,0.00378371,0.00841730,
 0.02780968,0.00013359,-0.00006276,0.00000379,0.00042693,0.00198025,0.0
 0017688,0.00005914,-0.00007533,0.00000024,-0.00002403,-0.00000576,-0.0
 0000087,0.00001098,0.00002168,0.00000070,0.00006265,-0.00008735,-0.000
 00350,-0.00004991,-0.00000476,-0.00000102,0.00001591,0.00005742,-0.000
 00098,0.00000811,-0.00005718,-0.00000098,0.00004848,-0.00002547,0.0000
 0210,-0.00004951,0.00006492,-0.00000039,-0.00601412,0.00021782,-0.0003
 0277,0.00087172,-0.00199397,-0.00019485,-0.33406112,-0.05812234,-0.009
 22397,0.00101950,0.00052469,0.00004536,-0.01287982,-0.00837586,-0.0005
 4739,-0.00155559,0.00359043,-0.00020075,0.00000446,0.00000393,-0.00000
 147,0.00000219,-0.00000175,0.00000003,0.00000438,0.00000388,0.00000191
 ,-0.00000475,-0.00000354,0.00000161,0.00000117,-0.00000259,-0.00000002
 ,-0.00000458,-0.00000347,-0.00000195,-0.00000087,0.00000551,-0.0000001
 7,-0.00000499,0.00000156,-0.00000055,0.00000496,-0.00000295,0.,0.00000
 227,-0.00000554,0.00000019,-0.00039675,0.00033099,-0.00001102,0.351906
 87,0.00120010,0.00013537,0.00003969,-0.00100642,0.00264217,0.00010194,
 -0.00013137,0.00017123,-0.00000034,0.00005386,0.00001291,0.00000175,-0
 .00002524,-0.00004937,-0.00000172,-0.00018004,0.00011520,-0.00000604,0
 .00007288,-0.00009681,0.00000048,-0.00005154,-0.00015156,-0.00000601,-
 0.00000214,0.00014514,0.00000268,-0.00012365,0.00006117,-0.00000162,0.
 00010831,-0.00015772,-0.00000017,-0.02962989,-0.00026594,-0.00091484,-
 0.00097432,-0.00542205,-0.00024670,-0.05707127,-0.07155119,-0.00218339
 ,0.00007967,-0.00184298,-0.00002637,0.02289676,0.01132615,0.00081187,0
 .00480150,-0.00305505,-0.00007101,-0.00000971,-0.00000959,0.00000281,-
 0.00000506,0.00000399,-0.00000007,-0.00000954,-0.00000945,-0.00000373,
 0.00001055,0.00000812,-0.00000372,-0.00000248,0.00000608,0.00000004,0.
 00001034,0.00000793,0.00000465,0.00018867,-0.00008680,0.00000385,0.000
 00198,-0.00001580,-0.00000053,-0.00000125,0.00000048,-0.00000005,-0.00
 000407,0.00001154,0.00000026,-0.00147663,-0.00010029,-0.00004672,0.061
 96109,0.06720987,0.00002711,-0.00000181,-0.00005475,0.00012227,0.00018
 720,-0.00467232,-0.00000103,0.00000145,-0.00000122,0.00000037,0.000000
 05,0.00000264,-0.00000025,-0.00000045,0.00000164,-0.00000634,-0.000002
 05,0.00013210,0.00000102,-0.00000153,-0.00002019,-0.00000318,-0.000003
 48,0.00009366,0.,0.00000138,0.00000451,0.00000002,0.00000135,-0.000043
 69,0.00000059,-0.00000163,0.00000873,-0.00084742,-0.00009252,0.0050803
 8,-0.00017481,-0.00027404,0.00659206,-0.00920511,-0.00220849,-0.038624
 04,0.00003753,-0.00001337,-0.00027551,0.00002350,-0.00005236,0.0014539
 7,-0.00017875,-0.00010399,0.00806672,0.00000009,0.00000020,-0.00000044
 ,-0.00000004,0.00000003,0.00000001,-0.00000021,-0.00000035,-0.00000051
 ,0.00000126,-0.00000021,-0.00000100,-0.00000002,0.00000005,0.00000019,
 -0.00000104,0.00000039,-0.00000097,0.00000312,-0.00000152,0.00000836,-
 0.00000054,-0.00000055,0.00001588,0.00000002,-0.00000012,0.00000276,0.
 00000024,0.00000023,-0.00000861,-0.00004416,0.00000257,0.00023576,0.01
 010656,0.00245220,0.02703866,0.00035843,-0.00073305,-0.00000764,-0.000
 99003,0.00009180,0.00000051,-0.00024045,0.00030847,-0.00000072,0.00009
 822,0.00002124,0.00000320,-0.00004301,-0.00009050,-0.00000302,-0.00040
 014,0.00037708,-0.00000595,0.00025457,-0.00001892,0.00000656,-0.000054
 37,-0.00029406,-0.00000748,-0.00002904,0.00026537,0.00000436,-0.000236
 27,0.00009844,-0.00000476,0.00020203,-0.00027634,0.00000022,0.00008820
 ,0.00324078,-0.00016223,-0.01482748,-0.00460561,-0.00070465,0.00029910
 ,0.00062838,0.00003604,-0.33014604,-0.02856554,-0.00838582,0.00256320,
 -0.00104869,-0.00022365,-0.00708346,-0.00965937,-0.00028372,-0.0000184
 2,-0.00001573,0.00000651,-0.00000893,0.00000648,-0.00000014,-0.0000180
 3,-0.00001543,-0.00000819,0.00001909,0.00001499,-0.00000724,-0.0000039
 9,0.00001041,0.00000008,0.00001862,0.00001465,0.00000889,0.00003770,-0
 .00000272,0.00000134,0.00001016,-0.00000980,0.00000004,-0.00001600,0.0
 0000872,-0.00000026,-0.00000470,0.00001729,0.00000022,0.00072170,0.000
 04618,0.00012894,-0.00012927,0.00001884,0.00003741,0.34995072,-0.00036
 493,0.00023317,-0.00000947,0.00169554,0.00044484,0.00007325,0.00004324
 ,-0.00005877,0.00000010,-0.00001823,-0.00000496,-0.00000064,0.00000937
 ,0.00001650,0.00000059,0.00005901,-0.00003966,0.00000020,-0.00001846,-
 0.00000534,-0.00000090,0.00002462,0.00004016,0.00000134,-0.00000029,-0
 .00004861,-0.00000089,0.00003473,-0.00002299,0.00000065,-0.00003259,0.
 00005083,-0.00000004,0.00252578,-0.00397710,-0.00015266,0.02495597,0.0
 0687621,0.00067104,-0.00024570,-0.00069765,-0.00000862,-0.02716666,-0.
 05955702,-0.00102412,-0.00234866,-0.00400098,-0.00032023,-0.03746807,-
 0.01156410,-0.00118439,0.00000323,0.00000310,-0.00000088,0.00000173,-0
 .00000149,0.00000002,0.00000317,0.00000307,0.00000119,-0.00000355,-0.0
 0000273,0.00000120,0.00000082,-0.00000222,-0.00000002,-0.00000346,-0.0
 0000267,-0.00000150,-0.00003508,-0.00000154,-0.00000088,-0.00000252,0.
 00000206,-0.00000008,0.00000462,-0.00000311,0.00000009,0.00000197,-0.0
 0000533,-0.00000004,-0.00074465,0.00083559,0.00006669,-0.00009040,0.00
 023189,0.00002869,0.04023705,0.07145592,-0.00000057,-0.00001948,0.0001
 5090,0.00002977,0.00002800,-0.00094359,-0.00000574,0.00000741,-0.00000
 197,0.00000233,0.00000047,0.00000121,-0.00000101,-0.00000217,-0.000000
 06,-0.00001140,0.00000845,0.00005771,0.00000617,-0.00000090,0.00001397
 ,-0.00000127,-0.00000740,0.00000771,-0.00000073,0.00000644,-0.00000182
 ,-0.00000566,0.00000235,-0.00000540,0.00000472,-0.00000677,0.00000661,
 -0.00017630,-0.00013232,0.00813318,-0.00016430,-0.00014343,0.00772439,
 0.00001965,0.00001666,-0.00059299,-0.00836006,-0.00106103,-0.04459223,
 -0.00024683,-0.00028513,0.00999276,-0.00079211,-0.00042011,-0.00321020
 ,-0.00000051,-0.00000012,-0.00000002,-0.00000021,0.00000015,0.00000003
 ,-0.00000036,-0.00000061,-0.00000040,0.00000069,0.00000043,-0.00000035
 ,-0.00000009,0.00000024,0.00000002,0.00000023,0.00000029,0.00000003,0.
 00000072,0.00000011,-0.00001064,0.00000016,-0.00000027,0.00000233,-0.0
 0000032,0.00000020,-0.00000126,-0.00000007,0.00000039,-0.00000072,0.00
 011431,0.00008876,-0.00393205,0.00003563,0.00003174,-0.00147632,0.0095
 9286,0.00189990,0.02831032,-0.00018950,0.00046406,0.00000891,0.0005856
 9,0.00085065,0.00004662,0.00000011,0.00000027,0.00000002,-0.00000001,0
 .00000105,0.,-0.00000095,0.00000059,-0.00000006,0.00006838,0.00004739,
 0.00000121,-0.00001433,0.00001018,-0.00000010,-0.00003171,0.00002762,-
 0.00000131,-0.00000197,-0.00000557,-0.00000007,0.00001179,0.00000764,0
 .00000077,-0.00000070,0.00000017,-0.00000007,-0.00303578,0.00266228,-0
 .00025401,-0.00064612,-0.00017631,-0.00000329,0.01018806,0.02108604,0.
 00046328,-0.00426276,-0.00126023,-0.00043173,-0.07457179,-0.06647906,-
 0.00205375,-0.01838918,-0.03580946,-0.00106004,0.00000016,-0.00000008,
 -0.00000015,-0.00000006,0.00000017,0.,0.00000015,-0.00000008,0.0000001
 6,-0.00000002,-0.00000016,0.00000026,-0.00000016,0.00000010,0.,0.00000
 001,-0.00000017,-0.00000024,0.00000518,0.00000085,0.00000009,0.0000014
 0,-0.00000259,-0.00000007,-0.00000196,0.00000173,-0.00000002,-0.000002
 12,0.00000302,0.00000012,0.00021281,-0.00011759,0.00004777,0.00059198,
 -0.00069991,0.00010179,-0.00037211,-0.00105759,-0.00003970,0.08985550,
 0.00007596,0.00020973,0.00000997,-0.00083461,-0.00142215,-0.00003975,0
 .00023355,-0.00029551,0.00000084,-0.00009545,-0.00002089,-0.00000315,0
 .00004070,0.00008608,0.00000283,0.00031842,-0.00043346,-0.00000064,-0.
 00025847,0.00002059,-0.00000694,0.00007023,0.00026635,0.00000648,0.000
 03346,-0.00025158,-0.00000384,0.00022401,-0.00009651,0.00000482,-0.000
 19734,0.00026634,-0.00000050,0.00382756,-0.00027236,-0.00004330,0.0007
 0564,0.00015595,0.00003411,-0.00892265,-0.01721316,-0.00069491,0.00010
 022,0.00291581,-0.00013701,-0.06765717,-0.31609275,-0.00683239,-0.0081
 6194,0.00001210,-0.00015771,0.00001783,0.00001513,-0.00000662,0.000008
 61,-0.00000609,0.00000013,0.00001744,0.00001486,0.00000825,-0.00001831
 ,-0.00001422,0.00000669,0.00000398,-0.00000986,-0.00000008,-0.00001785
 ,-0.00001391,-0.00000824,-0.00002071,0.00000650,-0.00000053,-0.0000099
 4,0.00001289,-0.00000009,0.00001572,-0.00000880,0.00000029,0.00000550,
 -0.00001727,-0.00000009,-0.00003586,-0.00008785,0.00002665,0.00015685,
 0.00072540,0.00008267,-0.00007040,-0.00019707,-0.00001227,0.08044501,0
 .33174572,0.00000243,0.00002007,-0.00019667,0.00001700,0.00000648,-0.0
 0055173,0.00000414,-0.00000522,-0.00000017,-0.00000170,-0.00000035,0.0
 0000051,0.00000065,0.00000151,0.00000185,0.00000522,-0.00000749,0.0000
 6800,-0.00000476,0.00000073,-0.00000443,-0.00000061,0.00000469,0.00003
 562,0.00000065,-0.00000450,-0.00000435,0.00000459,-0.00000128,-0.00001
 116,-0.00000356,0.00000468,0.00000176,-0.00023214,-0.00007428,0.007914
 04,0.00001244,0.00000935,-0.00064720,-0.00008518,0.00013149,0.00736234
 ,-0.00040686,-0.00017385,0.01055486,-0.00207566,-0.00680013,-0.0442748
 5,-0.00055531,-0.00091990,-0.00369346,0.00000030,0.00000048,-0.0000002
 9,0.00000015,-0.00000010,0.00000004,0.00000034,0.00000005,-0.00000003,
 0.00000016,-0.00000062,-0.00000024,0.00000006,-0.00000017,0.00000007,-
 0.00000078,0.00000013,-0.00000053,-0.00000034,0.00000006,0.00000344,-0
 .00000021,0.00000011,0.00000267,0.00000023,-0.00000011,-0.00000003,0.0
 0000017,-0.00000014,-0.00000456,0.00004902,0.00002457,-0.00159583,0.00
 011766,0.00005907,-0.00355846,-0.00002174,-0.00003961,0.00036885,0.003
 17364,0.00776431,0.02822994\\-0.00000898,0.00001028,-0.00000046,0.0000
 0682,-0.00001765,-0.00000383,-0.00000156,0.00000380,-0.00000081,-0.000
 00435,-0.00000512,-0.00000081,0.00000669,0.00000214,0.00000042,0.00001
 081,-0.00000419,0.00000107,-0.00000720,0.00000765,0.00000052,-0.000007
 34,0.00000797,0.00000038,0.00000488,-0.00000762,0.00000189,0.00000531,
 -0.00000506,-0.00000058,-0.00000934,0.00001366,0.00000069,-0.00000355,
 0.00000167,0.00000371,0.00000141,-0.00000146,-0.00000096,0.00000054,-0
 .00000151,0.00000002,-0.00000059,0.00000098,-0.00000013,-0.00000109,0.
 00000006,0.00000005,-0.00000029,-0.00000099,-0.00000009,0.00000187,-0.
 00000336,0.00000187,0.00000159,0.00000454,-0.00000035,0.00000191,-0.00
 000012,-0.00000094,0.00000319,-0.00000197,-0.00000205,-0.00000367,-0.0
 0000014,0.00000168,0.00000152,-0.00000227,0.00000014,0.00000070,0.0000
 0071,0.00000013,0.00000059,-0.00000067,0.00000006,0.00000045,-0.000001
 16,-0.00000129,0.00000114,0.00000069,-0.00000015,-0.00000007,-0.000000
 02,-0.00000009,-0.00000047,-0.00000023,-0.00000003,-0.00000027,-0.0000
 0035,-0.00000005,-0.00000065,-0.00000023,-0.00000002\\\@
 The archive entry for this job was punched.


 THAT'S WHAT MAKES US A GREAT COUNTRY.
 THE LITTLE THINGS ARE SERIOUS AND THE BIG ONES ARE NOT.
           WILL ROGERS
 Job cpu time:       0 days  2 hours 25 minutes 14.3 seconds.
 Elapsed time:       0 days  0 hours  2 minutes 50.4 seconds.
 File lengths (MBytes):  RWF=    680 Int=      0 D2E=      0 Chk=     28 Scr=      8
 Normal termination of Gaussian 16 at Tue Apr 19 16:08:31 2022.
